# vtk DataFile Version 3.0
#This file was generated by the deal.II library on 2022/11/16 at 22:09:26
ASCII
DATASET UNSTRUCTURED_GRID

POINTS 4096 double
0 0.5 0
0.03125 0.5 0
0 0.53125 0
0.03125 0.53125 0
0.03125 0.5 0
0.0625 0.5 0
0.03125 0.53125 0
0.0625 0.53125 0
0 0.53125 0
0.03125 0.53125 0
0 0.5625 0
0.03125 0.5625 0
0.03125 0.53125 0
0.0625 0.53125 0
0.03125 0.5625 0
0.0625 0.5625 0
0.0625 0.5 0
0.09375 0.5 0
0.0625 0.53125 0
0.09375 0.53125 0
0.09375 0.5 0
0.125 0.5 0
0.09375 0.53125 0
0.125 0.53125 0
0.0625 0.53125 0
0.09375 0.53125 0
0.0625 0.5625 0
0.09375 0.5625 0
0.09375 0.53125 0
0.125 0.53125 0
0.09375 0.5625 0
0.125 0.5625 0
0 0.5625 0
0.03125 0.5625 0
0 0.59375 0
0.03125 0.59375 0
0.03125 0.5625 0
0.0625 0.5625 0
0.03125 0.59375 0
0.0625 0.59375 0
0 0.59375 0
0.03125 0.59375 0
0 0.625 0
0.03125 0.625 0
0.03125 0.59375 0
0.0625 0.59375 0
0.03125 0.625 0
0.0625 0.625 0
0.0625 0.5625 0
0.09375 0.5625 0
0.0625 0.59375 0
0.09375 0.59375 0
0.09375 0.5625 0
0.125 0.5625 0
0.09375 0.59375 0
0.125 0.59375 0
0.0625 0.59375 0
0.09375 0.59375 0
0.0625 0.625 0
0.09375 0.625 0
0.09375 0.59375 0
0.125 0.59375 0
0.09375 0.625 0
0.125 0.625 0
0.125 0.5 0
0.15625 0.5 0
0.125 0.53125 0
0.15625 0.53125 0
0.15625 0.5 0
0.1875 0.5 0
0.15625 0.53125 0
0.1875 0.53125 0
0.125 0.53125 0
0.15625 0.53125 0
0.125 0.5625 0
0.15625 0.5625 0
0.15625 0.53125 0
0.1875 0.53125 0
0.15625 0.5625 0
0.1875 0.5625 0
0.1875 0.5 0
0.21875 0.5 0
0.1875 0.53125 0
0.21875 0.53125 0
0.21875 0.5 0
0.25 0.5 0
0.21875 0.53125 0
0.25 0.53125 0
0.1875 0.53125 0
0.21875 0.53125 0
0.1875 0.5625 0
0.21875 0.5625 0
0.21875 0.53125 0
0.25 0.53125 0
0.21875 0.5625 0
0.25 0.5625 0
0.125 0.5625 0
0.15625 0.5625 0
0.125 0.59375 0
0.15625 0.59375 0
0.15625 0.5625 0
0.1875 0.5625 0
0.15625 0.59375 0
0.1875 0.59375 0
0.125 0.59375 0
0.15625 0.59375 0
0.125 0.625 0
0.15625 0.625 0
0.15625 0.59375 0
0.1875 0.59375 0
0.15625 0.625 0
0.1875 0.625 0
0.1875 0.5625 0
0.21875 0.5625 0
0.1875 0.59375 0
0.21875 0.59375 0
0.21875 0.5625 0
0.25 0.5625 0
0.21875 0.59375 0
0.25 0.59375 0
0.1875 0.59375 0
0.21875 0.59375 0
0.1875 0.625 0
0.21875 0.625 0
0.21875 0.59375 0
0.25 0.59375 0
0.21875 0.625 0
0.25 0.625 0
0 0.625 0
0.03125 0.625 0
0 0.65625 0
0.03125 0.65625 0
0.03125 0.625 0
0.0625 0.625 0
0.03125 0.65625 0
0.0625 0.65625 0
0 0.65625 0
0.03125 0.65625 0
0 0.6875 0
0.03125 0.6875 0
0.03125 0.65625 0
0.0625 0.65625 0
0.03125 0.6875 0
0.0625 0.6875 0
0.0625 0.625 0
0.09375 0.625 0
0.0625 0.65625 0
0.09375 0.65625 0
0.09375 0.625 0
0.125 0.625 0
0.09375 0.65625 0
0.125 0.65625 0
0.0625 0.65625 0
0.09375 0.65625 0
0.0625 0.6875 0
0.09375 0.6875 0
0.09375 0.65625 0
0.125 0.65625 0
0.09375 0.6875 0
0.125 0.6875 0
0 0.6875 0
0.03125 0.6875 0
0 0.71875 0
0.03125 0.71875 0
0.03125 0.6875 0
0.0625 0.6875 0
0.03125 0.71875 0
0.0625 0.71875 0
0 0.71875 0
0.03125 0.71875 0
0 0.75 0
0.03125 0.75 0
0.03125 0.71875 0
0.0625 0.71875 0
0.03125 0.75 0
0.0625 0.75 0
0.0625 0.6875 0
0.09375 0.6875 0
0.0625 0.71875 0
0.09375 0.71875 0
0.09375 0.6875 0
0.125 0.6875 0
0.09375 0.71875 0
0.125 0.71875 0
0.0625 0.71875 0
0.09375 0.71875 0
0.0625 0.75 0
0.09375 0.75 0
0.09375 0.71875 0
0.125 0.71875 0
0.09375 0.75 0
0.125 0.75 0
0.125 0.625 0
0.15625 0.625 0
0.125 0.65625 0
0.15625 0.65625 0
0.15625 0.625 0
0.1875 0.625 0
0.15625 0.65625 0
0.1875 0.65625 0
0.125 0.65625 0
0.15625 0.65625 0
0.125 0.6875 0
0.15625 0.6875 0
0.15625 0.65625 0
0.1875 0.65625 0
0.15625 0.6875 0
0.1875 0.6875 0
0.1875 0.625 0
0.21875 0.625 0
0.1875 0.65625 0
0.21875 0.65625 0
0.21875 0.625 0
0.25 0.625 0
0.21875 0.65625 0
0.25 0.65625 0
0.1875 0.65625 0
0.21875 0.65625 0
0.1875 0.6875 0
0.21875 0.6875 0
0.21875 0.65625 0
0.25 0.65625 0
0.21875 0.6875 0
0.25 0.6875 0
0.125 0.6875 0
0.15625 0.6875 0
0.125 0.71875 0
0.15625 0.71875 0
0.15625 0.6875 0
0.1875 0.6875 0
0.15625 0.71875 0
0.1875 0.71875 0
0.125 0.71875 0
0.15625 0.71875 0
0.125 0.75 0
0.15625 0.75 0
0.15625 0.71875 0
0.1875 0.71875 0
0.15625 0.75 0
0.1875 0.75 0
0.1875 0.6875 0
0.21875 0.6875 0
0.1875 0.71875 0
0.21875 0.71875 0
0.21875 0.6875 0
0.25 0.6875 0
0.21875 0.71875 0
0.25 0.71875 0
0.1875 0.71875 0
0.21875 0.71875 0
0.1875 0.75 0
0.21875 0.75 0
0.21875 0.71875 0
0.25 0.71875 0
0.21875 0.75 0
0.25 0.75 0
0.25 0.5 0
0.28125 0.5 0
0.25 0.53125 0
0.28125 0.53125 0
0.28125 0.5 0
0.3125 0.5 0
0.28125 0.53125 0
0.3125 0.53125 0
0.25 0.53125 0
0.28125 0.53125 0
0.25 0.5625 0
0.28125 0.5625 0
0.28125 0.53125 0
0.3125 0.53125 0
0.28125 0.5625 0
0.3125 0.5625 0
0.3125 0.5 0
0.34375 0.5 0
0.3125 0.53125 0
0.34375 0.53125 0
0.34375 0.5 0
0.375 0.5 0
0.34375 0.53125 0
0.375 0.53125 0
0.3125 0.53125 0
0.34375 0.53125 0
0.3125 0.5625 0
0.34375 0.5625 0
0.34375 0.53125 0
0.375 0.53125 0
0.34375 0.5625 0
0.375 0.5625 0
0.25 0.5625 0
0.28125 0.5625 0
0.25 0.59375 0
0.28125 0.59375 0
0.28125 0.5625 0
0.3125 0.5625 0
0.28125 0.59375 0
0.3125 0.59375 0
0.25 0.59375 0
0.28125 0.59375 0
0.25 0.625 0
0.28125 0.625 0
0.28125 0.59375 0
0.3125 0.59375 0
0.28125 0.625 0
0.3125 0.625 0
0.3125 0.5625 0
0.34375 0.5625 0
0.3125 0.59375 0
0.34375 0.59375 0
0.34375 0.5625 0
0.375 0.5625 0
0.34375 0.59375 0
0.375 0.59375 0
0.3125 0.59375 0
0.34375 0.59375 0
0.3125 0.625 0
0.34375 0.625 0
0.34375 0.59375 0
0.375 0.59375 0
0.34375 0.625 0
0.375 0.625 0
0.375 0.5 0
0.40625 0.5 0
0.375 0.53125 0
0.40625 0.53125 0
0.40625 0.5 0
0.4375 0.5 0
0.40625 0.53125 0
0.4375 0.53125 0
0.375 0.53125 0
0.40625 0.53125 0
0.375 0.5625 0
0.40625 0.5625 0
0.40625 0.53125 0
0.4375 0.53125 0
0.40625 0.5625 0
0.4375 0.5625 0
0.4375 0.5 0
0.46875 0.5 0
0.4375 0.53125 0
0.46875 0.53125 0
0.46875 0.5 0
0.5 0.5 0
0.46875 0.53125 0
0.5 0.53125 0
0.4375 0.53125 0
0.46875 0.53125 0
0.4375 0.5625 0
0.46875 0.5625 0
0.46875 0.53125 0
0.5 0.53125 0
0.46875 0.5625 0
0.5 0.5625 0
0.375 0.5625 0
0.40625 0.5625 0
0.375 0.59375 0
0.40625 0.59375 0
0.40625 0.5625 0
0.4375 0.5625 0
0.40625 0.59375 0
0.4375 0.59375 0
0.375 0.59375 0
0.40625 0.59375 0
0.375 0.625 0
0.40625 0.625 0
0.40625 0.59375 0
0.4375 0.59375 0
0.40625 0.625 0
0.4375 0.625 0
0.4375 0.5625 0
0.46875 0.5625 0
0.4375 0.59375 0
0.46875 0.59375 0
0.46875 0.5625 0
0.5 0.5625 0
0.46875 0.59375 0
0.5 0.59375 0
0.4375 0.59375 0
0.46875 0.59375 0
0.4375 0.625 0
0.46875 0.625 0
0.46875 0.59375 0
0.5 0.59375 0
0.46875 0.625 0
0.5 0.625 0
0.25 0.625 0
0.28125 0.625 0
0.25 0.65625 0
0.28125 0.65625 0
0.28125 0.625 0
0.3125 0.625 0
0.28125 0.65625 0
0.3125 0.65625 0
0.25 0.65625 0
0.28125 0.65625 0
0.25 0.6875 0
0.28125 0.6875 0
0.28125 0.65625 0
0.3125 0.65625 0
0.28125 0.6875 0
0.3125 0.6875 0
0.3125 0.625 0
0.34375 0.625 0
0.3125 0.65625 0
0.34375 0.65625 0
0.34375 0.625 0
0.375 0.625 0
0.34375 0.65625 0
0.375 0.65625 0
0.3125 0.65625 0
0.34375 0.65625 0
0.3125 0.6875 0
0.34375 0.6875 0
0.34375 0.65625 0
0.375 0.65625 0
0.34375 0.6875 0
0.375 0.6875 0
0.25 0.6875 0
0.28125 0.6875 0
0.25 0.71875 0
0.28125 0.71875 0
0.28125 0.6875 0
0.3125 0.6875 0
0.28125 0.71875 0
0.3125 0.71875 0
0.25 0.71875 0
0.28125 0.71875 0
0.25 0.75 0
0.28125 0.75 0
0.28125 0.71875 0
0.3125 0.71875 0
0.28125 0.75 0
0.3125 0.75 0
0.3125 0.6875 0
0.34375 0.6875 0
0.3125 0.71875 0
0.34375 0.71875 0
0.34375 0.6875 0
0.375 0.6875 0
0.34375 0.71875 0
0.375 0.71875 0
0.3125 0.71875 0
0.34375 0.71875 0
0.3125 0.75 0
0.34375 0.75 0
0.34375 0.71875 0
0.375 0.71875 0
0.34375 0.75 0
0.375 0.75 0
0.375 0.625 0
0.40625 0.625 0
0.375 0.65625 0
0.40625 0.65625 0
0.40625 0.625 0
0.4375 0.625 0
0.40625 0.65625 0
0.4375 0.65625 0
0.375 0.65625 0
0.40625 0.65625 0
0.375 0.6875 0
0.40625 0.6875 0
0.40625 0.65625 0
0.4375 0.65625 0
0.40625 0.6875 0
0.4375 0.6875 0
0.4375 0.625 0
0.46875 0.625 0
0.4375 0.65625 0
0.46875 0.65625 0
0.46875 0.625 0
0.5 0.625 0
0.46875 0.65625 0
0.5 0.65625 0
0.4375 0.65625 0
0.46875 0.65625 0
0.4375 0.6875 0
0.46875 0.6875 0
0.46875 0.65625 0
0.5 0.65625 0
0.46875 0.6875 0
0.5 0.6875 0
0.375 0.6875 0
0.40625 0.6875 0
0.375 0.71875 0
0.40625 0.71875 0
0.40625 0.6875 0
0.4375 0.6875 0
0.40625 0.71875 0
0.4375 0.71875 0
0.375 0.71875 0
0.40625 0.71875 0
0.375 0.75 0
0.40625 0.75 0
0.40625 0.71875 0
0.4375 0.71875 0
0.40625 0.75 0
0.4375 0.75 0
0.4375 0.6875 0
0.46875 0.6875 0
0.4375 0.71875 0
0.46875 0.71875 0
0.46875 0.6875 0
0.5 0.6875 0
0.46875 0.71875 0
0.5 0.71875 0
0.4375 0.71875 0
0.46875 0.71875 0
0.4375 0.75 0
0.46875 0.75 0
0.46875 0.71875 0
0.5 0.71875 0
0.46875 0.75 0
0.5 0.75 0
0 0.75 0
0.03125 0.75 0
0 0.78125 0
0.03125 0.78125 0
0.03125 0.75 0
0.0625 0.75 0
0.03125 0.78125 0
0.0625 0.78125 0
0 0.78125 0
0.03125 0.78125 0
0 0.8125 0
0.03125 0.8125 0
0.03125 0.78125 0
0.0625 0.78125 0
0.03125 0.8125 0
0.0625 0.8125 0
0.0625 0.75 0
0.09375 0.75 0
0.0625 0.78125 0
0.09375 0.78125 0
0.09375 0.75 0
0.125 0.75 0
0.09375 0.78125 0
0.125 0.78125 0
0.0625 0.78125 0
0.09375 0.78125 0
0.0625 0.8125 0
0.09375 0.8125 0
0.09375 0.78125 0
0.125 0.78125 0
0.09375 0.8125 0
0.125 0.8125 0
0 0.8125 0
0.03125 0.8125 0
0 0.84375 0
0.03125 0.84375 0
0.03125 0.8125 0
0.0625 0.8125 0
0.03125 0.84375 0
0.0625 0.84375 0
0 0.84375 0
0.03125 0.84375 0
0 0.875 0
0.03125 0.875 0
0.03125 0.84375 0
0.0625 0.84375 0
0.03125 0.875 0
0.0625 0.875 0
0.0625 0.8125 0
0.09375 0.8125 0
0.0625 0.84375 0
0.09375 0.84375 0
0.09375 0.8125 0
0.125 0.8125 0
0.09375 0.84375 0
0.125 0.84375 0
0.0625 0.84375 0
0.09375 0.84375 0
0.0625 0.875 0
0.09375 0.875 0
0.09375 0.84375 0
0.125 0.84375 0
0.09375 0.875 0
0.125 0.875 0
0.125 0.75 0
0.15625 0.75 0
0.125 0.78125 0
0.15625 0.78125 0
0.15625 0.75 0
0.1875 0.75 0
0.15625 0.78125 0
0.1875 0.78125 0
0.125 0.78125 0
0.15625 0.78125 0
0.125 0.8125 0
0.15625 0.8125 0
0.15625 0.78125 0
0.1875 0.78125 0
0.15625 0.8125 0
0.1875 0.8125 0
0.1875 0.75 0
0.21875 0.75 0
0.1875 0.78125 0
0.21875 0.78125 0
0.21875 0.75 0
0.25 0.75 0
0.21875 0.78125 0
0.25 0.78125 0
0.1875 0.78125 0
0.21875 0.78125 0
0.1875 0.8125 0
0.21875 0.8125 0
0.21875 0.78125 0
0.25 0.78125 0
0.21875 0.8125 0
0.25 0.8125 0
0.125 0.8125 0
0.15625 0.8125 0
0.125 0.84375 0
0.15625 0.84375 0
0.15625 0.8125 0
[...]
POINT_DATA 4096
SCALARS x_dis double 1
LOOKUP_TABLE default
-0.000560938 -0.00056086 -0.000670701 -0.000670612 -0.00056086 -0.0005608 -0.000670612 -0.000670533 -0.000670701 -0.000670612 -0.000780619 -0.000780522 -0.000670612 -0.000670533 -0.000780522 -0.000780426 -0.0005608 -0.000560755 -0.000670533 -0.00067047 -0.000560755 -0.000560726 -0.00067047 -0.000670435 -0.000670533 -0.00067047 -0.000780426 -0.000780345 -0.00067047 -0.000670435 -0.000780345 -0.000780303 -0.000780619 -0.000780522 -0.000890574 -0.000890471 -0.000780522 -0.000780426 -0.000890471 -0.000890362 -0.000890574 -0.000890471 -0.00100054 -0.00100043 -0.000890471 -0.000890362 -0.00100043 -0.00100032 -0.000780426 -0.000780345 -0.000890362 -0.000890264 -0.000780345 -0.000780303 -0.000890264 -0.000890211 -0.000890362 -0.000890264 -0.00100032 -0.0010002 -0.000890264 -0.000890211 -0.0010002 -0.00100013 -0.000560726 -0.000560711 -0.000670435 -0.000670452 -0.000560711 -0.000560713 -0.000670452 -0.000670564 -0.000670435 -0.000670452 -0.000780303 -0.000780341 -0.000670452 -0.000670564 -0.000780341 -0.000780532 -0.000560713 -0.000560733 -0.000670564 -0.000670863 -0.000560733 -0.000560766 -0.000670863 -0.000671512 -0.000670564 -0.000670863 -0.000780532 -0.000781031 -0.000670863 -0.000671512 -0.000781031 -0.000782115 -0.000780303 -0.000780341 -0.000890211 -0.000890253 -0.000780341 -0.000780532 -0.000890253 -0.000890478 -0.000890211 -0.000890253 -0.00100013 -0.00100016 -0.000890253 -0.000890478 -0.00100016 -0.00100037 -0.000780532 -0.000781031 -0.000890478 -0.000891057 -0.000781031 -0.000782115 -0.000891057 -0.000892304 -0.000890478 -0.000891057 -0.00100037 -0.00100093 -0.000891057 -0.000892304 -0.00100093 -0.00100209 -0.00100054 -0.00100043 -0.00111051 -0.0011104 -0.00100043 -0.00100032 -0.0011104 -0.00111028 -0.00111051 -0.0011104 -0.00122048 -0.00122038 -0.0011104 -0.00111028 -0.00122038 -0.00122026 -0.00100032 -0.0010002 -0.00111028 -0.00111016 -0.0010002 -0.00100013 -0.00111016 -0.00111007 -0.00111028 -0.00111016 -0.00122026 -0.00122013 -0.00111016 -0.00111007 -0.00122013 -0.00122003 -0.00122048 -0.00122038 -0.00133046 -0.00133035 -0.00122038 -0.00122026 -0.00133035 -0.00133024 -0.00133046 -0.00133035 -0.00144043 -0.00144033 -0.00133035 -0.00133024 -0.00144033 -0.00144023 -0.00122026 -0.00122013 -0.00133024 -0.00133012 -0.00122013 -0.00122003 -0.00133012 -0.00133001 -0.00133024 -0.00133012 -0.00144023 -0.00144012 -0.00133012 -0.00133001 -0.00144012 -0.00144001 -0.00100013 -0.00100016 -0.00111007 -0.00111007 -0.00100016 -0.00100037 -0.00111007 -0.00111023 -0.00111007 -0.00111007 -0.00122003 -0.00121999 -0.00111007 -0.00111023 -0.00121999 -0.00122008 -0.00100037 -0.00100093 -0.00111023 -0.00111069 -0.00100093 -0.00100209 -0.00111069 -0.00111163 -0.00111023 -0.00111069 -0.00122008 -0.00122041 -0.00111069 -0.00111163 -0.00122041 -0.00122109 -0.00122003 -0.00121999 -0.00133001 -0.00132993 -0.00121999 -0.00122008 -0.00132993 -0.00132995 -0.00133001 -0.00132993 -0.00144001 -0.00143991 -0.00132993 -0.00132995 -0.00143991 -0.00143987 -0.00122008 -0.00122041 -0.00132995 -0.00133014 -0.00122041 -0.00122109 -0.00133014 -0.00133058 -0.00132995 -0.00133014 -0.00143987 -0.00143993 -0.00133014 -0.00133058 -0.00143993 -0.00144016 -0.000560766 -0.000560805 -0.000671512 -0.000672746 -0.000560805 -0.000560833 -0.000672746 -0.000674868 -0.000671512 -0.000672746 -0.000782115 -0.00078419 -0.000672746 -0.000674868 -0.00078419 -0.00078777 -0.000560833 -0.000560832 -0.000674868 -0.000678291 -0.000560832 -0.000560782 -0.000678291 -0.000683668 -0.000674868 -0.000678291 -0.00078777 -0.000793501 -0.000678291 -0.000683668 -0.000793501 -0.000802283 -0.000782115 -0.00078419 -0.000892304 -0.000894675 -0.00078419 -0.00078777 -0.000894675 -0.000898729 -0.000892304 -0.000894675 -0.00100209 -0.00100426 -0.000894675 -0.000898729 -0.00100426 -0.0010079 -0.00078777 -0.000793501 -0.000898729 -0.000905091 -0.000793501 -0.000802283 -0.000905091 -0.000914469 -0.000898729 -0.000905091 -0.0010079 -0.00101344 -0.000905091 -0.000914469 -0.00101344 -0.0010212 -0.000560782 -0.000560662 -0.000683668 -0.000692193 -0.000560662 -0.000560424 -0.000692193 -0.000706448 -0.000683668 -0.000692193 -0.000802283 -0.00081551 -0.000692193 -0.000706448 -0.00081551 -0.000835228 -0.000560424 -0.000559813 -0.000706448 -0.000732266 -0.000559813 -0.000558978 -0.000732266 -0.000789161 -0.000706448 -0.000732266 -0.000835228 -0.000864441 -0.000732266 -0.000789161 -0.000864441 -0.000894754 -0.000802283 -0.00081551 -0.000914469 -0.000927593 -0.00081551 -0.000835228 -0.000927593 -0.000944974 -0.000914469 -0.000927593 -0.0010212 -0.00103126 -0.000927593 -0.000944974 -0.00103126 -0.00104296 -0.000835228 -0.000864441 -0.000944974 -0.000964726 -0.000864441 -0.000894754 -0.000964726 -0.000984545 -0.000944974 -0.000964726 -0.00104296 -0.00105502 -0.000964726 -0.000984545 -0.00105502 -0.00106566 -0.00100209 -0.00100426 -0.00111163 -0.00111333 -0.00100426 -0.0010079 -0.00111333 -0.00111608 -0.00111163 -0.00111333 -0.00122109 -0.00122229 -0.00111333 -0.00111608 -0.00122229 -0.00122411 -0.0010079 -0.00101344 -0.00111608 -0.00112005 -0.00101344 -0.0010212 -0.00112005 -0.00112526 -0.00111608 -0.00112005 -0.00122411 -0.00122656 -0.00112005 -0.00112526 -0.00122656 -0.00122942 -0.00122109 -0.00122229 -0.00133058 -0.00133136 -0.00122229 -0.00122411 -0.00133136 -0.0013325 -0.00133058 -0.00133136 -0.00144016 -0.00144061 -0.00133136 -0.0013325 -0.00144061 -0.00144129 -0.00122411 -0.00122656 -0.0013325 -0.00133389 -0.00122656 -0.00122942 -0.00133389 -0.00133527 -0.0013325 -0.00133389 -0.00144129 -0.00144212 -0.00133389 -0.00133527 -0.00144212 -0.00144284 -0.0010212 -0.00103126 -0.00112526 -0.00113136 -0.00103126 -0.00104296 -0.00113136 -0.00113766 -0.00112526 -0.00113136 -0.00122942 -0.00123225 -0.00113136 -0.00113766 -0.00123225 -0.00123444 -0.00104296 -0.00105502 -0.00113766 -0.00114316 -0.00105502 -0.00106566 -0.00114316 -0.00114707 -0.00113766 -0.00114316 -0.00123444 -0.00123536 -0.00114316 -0.00114707 -0.00123536 -0.00123469 -0.00122942 -0.00123225 -0.00133527 -0.00133618 -0.00123225 -0.00123444 -0.00133618 -0.00133615 -0.00133527 -0.00133618 -0.00144284 -0.00144312 -0.00133618 -0.00133615 -0.00144312 -0.00144259 -0.00123444 -0.00123536 -0.00133615 -0.00133481 -0.00123536 -0.00123469 -0.00133481 -0.00133208 -0.00133615 -0.00133481 -0.00144259 -0.00144105 -0.00133481 -0.00133208 -0.00144105 -0.00143851 -0.00144043 -0.00144033 -0.0015504 -0.0015503 -0.00144033 -0.00144023 -0.0015503 -0.00155021 -0.0015504 -0.0015503 -0.00166038 -0.00166028 -0.0015503 -0.00155021 -0.00166028 -0.0016602 -0.00144023 -0.00144012 -0.00155021 -0.00155012 -0.00144012 -0.00144001 -0.00155012 -0.00155002 -0.00155021 -0.00155012 -0.0016602 -0.00166012 -0.00155012 -0.00155002 -0.00166012 -0.00166003 -0.00166038 -0.00166028 -0.00177035 -0.00177026 -0.00166028 -0.0016602 -0.00177026 -0.00177018 -0.00177035 -0.00177026 -0.00188034 -0.00188024 -0.00177026 -0.00177018 -0.00188024 -0.00188016 -0.0016602 -0.00166012 -0.00177018 -0.00177011 -0.00166012 -0.00166003 -0.00177011 -0.00177005 -0.00177018 -0.00177011 -0.00188016 -0.0018801 -0.00177011 -0.00177005 -0.0018801 -0.00188005 -0.00144001 -0.00143991 -0.00155002 -0.00154992 -0.00143991 -0.00143987 -0.00154992 -0.00154984 -0.00155002 -0.00154992 -0.00166003 -0.00165995 -0.00154992 -0.00154984 -0.00165995 -0.00165986 -0.00143987 -0.00143993 -0.00154984 -0.00154982 -0.00143993 -0.00144016 -0.00154982 -0.00154988 -0.00154984 -0.00154982 -0.00165986 -0.0016598 -0.00154982 -0.00154988 -0.0016598 -0.00165977 -0.00166003 -0.00165995 -0.00177005 -0.00176997 -0.00165995 -0.00165986 -0.00176997 -0.0017699 -0.00177005 -0.00176997 -0.00188005 -0.00188 -0.00176997 -0.0017699 -0.00188 -0.00187994 -0.00165986 -0.0016598 -0.0017699 -0.00176983 -0.0016598 -0.00165977 -0.00176983 -0.00176977 -0.0017699 -0.00176983 -0.00187994 -0.00187988 -0.00176983 -0.00176977 -0.00187988 -0.00187982 -0.00188034 -0.00188024 -0.00199032 -0.00199022 -0.00188024 -0.00188016 -0.00199022 -0.00199014 -0.00199032 -0.00199022 -0.00210029 -0.00210019 -0.00199022 -0.00199014 -0.00210019 -0.00210012 -0.00188016 -0.0018801 -0.00199014 -0.00199009 -0.0018801 -0.00188005 -0.00199009 -0.00199004 -0.00199014 -0.00199009 -0.00210012 -0.00210007 -0.00199009 -0.00199004 -0.00210007 -0.00210003 -0.00210029 -0.00210019 -0.00221023 -0.00221013 -0.00210019 -0.00210012 -0.00221013 -0.00221007 -0.00221023 -0.00221013 -0.00232 -0.00232 -0.00221013 -0.00221007 -0.00232 -0.00232 -0.00210012 -0.00210007 -0.00221007 -0.00221004 -0.00210007 -0.00210003 -0.00221004 -0.00221002 -0.00221007 -0.00221004 -0.00232 -0.00232 -0.00221004 -0.00221002 -0.00232 -0.00232 -0.00188005 -0.00188 -0.00199004 -0.00199001 -0.00188 -0.00187994 -0.00199001 -0.00198997 -0.00199004 -0.00199001 -0.00210003 -0.00210001 -0.00199001 -0.00198997 -0.00210001 -0.0021 -0.00187994 -0.00187988 -0.00198997 -0.00198993 -0.00187988 -0.00187982 -0.00198993 -0.00198988 -0.00198997 -0.00198993 -0.0021 -0.00209998 -0.00198993 -0.00198988 -0.00209998 -0.00209995 -0.00210003 -0.00210001 -0.00221002 -0.00221001 -0.00210001 -0.0021 -0.00221001 -0.00221001 -0.00221002 -0.00221001 -0.00232 -0.00232 -0.00221001 -0.00221001 -0.00232 -0.00232 -0.0021 -0.00209998 -0.00221001 -0.00221 -0.00209998 -0.00209995 -0.00221 -0.00220999 -0.00221001 -0.00221 -0.00232 -0.00232 -0.00221 -0.00220999 -0.00232 -0.00232 -0.00144016 -0.00144061 -0.00154988 -0.00155008 -0.00144061 -0.00144129 -0.00155008 -0.00155044 -0.00154988 -0.00155008 -0.00165977 -0.0016598 -0.00155008 -0.00155044 -0.0016598 -0.00165991 -0.00144129 -0.00144212 -0.00155044 -0.00155091 -0.00144212 -0.00144284 -0.00155091 -0.00155139 -0.00155044 -0.00155091 -0.00165991 -0.00166011 -0.00155091 -0.00155139 -0.00166011 -0.00166038 -0.00165977 -0.0016598 -0.00176977 -0.00176973 -0.0016598 -0.00165991 -0.00176973 -0.00176971 -0.00176977 -0.00176973 -0.00187982 -0.00187977 -0.00176973 -0.00176971 -0.00187977 -0.00187973 -0.00165991 -0.00166011 -0.00176971 -0.00176974 -0.00166011 -0.00166038 -0.00176974 -0.0017698 -0.00176971 -0.00176974 -0.00187973 -0.0018797 -0.00176974 -0.0017698 -0.0018797 -0.00187967 -0.00144284 -0.00144312 -0.00155139 -0.00155165 -0.00144312 -0.00144259 -0.00155165 -0.0015515 -0.00155139 -0.00155165 -0.00166038 -0.00166063 -0.00155165 -0.0015515 -0.00166063 -0.00166078 -0.00144259 -0.00144105 -0.0015515 -0.00155077 -0.00144105 -0.00143851 -0.00155077 -0.00154952 -0.0015515 -0.00155077 -0.00166078 -0.00166076 -0.00155077 -0.00154952 -0.00166076 -0.00166057 -0.00166038 -0.00166063 -0.0017698 -0.0017699 -0.00166063 -0.00166078 -0.0017699 -0.00177002 -0.0017698 -0.0017699 -0.00187967 -0.00187966 -0.0017699 -0.00177002 -0.00187966 -0.00187966 -0.00166078 -0.00166076 -0.00177002 -0.00177014 -0.00166076 -0.00166057 -0.00177014 -0.00177026 -0.00177002 -0.00177014 -0.00187966 -0.00187968 -0.00177014 -0.00177026 -0.00187968 -0.00187972 -0.00187982 -0.00187977 -0.00198988 -0.00198984 -0.00187977 -0.00187973 -0.00198984 -0.00198981 -0.00198988 -0.00198984 -0.00209995 -0.00209992 -0.00198984 -0.00198981 -0.00209992 -0.00209989 -0.00187973 -0.0018797 -0.00198981 -0.00198979 -0.0018797 -0.00187967 -0.00198979 -0.00198977 -0.00198981 -0.00198979 -0.00209989 -0.00209987 -0.00198979 -0.00198977 -0.00209987 -0.00209986 -0.00209995 -0.00209992 -0.00220999 -0.00220997 -0.00209992 -0.00209989 -0.00220997 -0.00220994 -0.00220999 -0.00220997 -0.00232 -0.00232 -0.00220997 -0.00220994 -0.00232 -0.00232 -0.00209989 -0.00209987 -0.00220994 -0.00220992 -0.00209987 -0.00209986 -0.00220992 -0.00220991 -0.00220994 -0.00220992 -0.00232 -0.00232 -0.00220992 -0.00220991 -0.00232 -0.00232 -0.00187967 -0.00187966 -0.00198977 -0.00198976 -0.00187966 -0.00187966 -0.00198976 -0.00198974 -0.00198977 -0.00198976 -0.00209986 -0.00209986 -0.00198976 -0.00198974 -0.00209986 -0.00209988 -0.00187966 -0.00187968 -0.00198974 -0.00198973 -0.00187968 -0.00187972 -0.00198973 -0.00198973 -0.00198974 -0.00198973 -0.00209988 -0.0020999 -0.00198973 -0.00198973 -0.0020999 -0.00209993 -0.00209986 -0.00209986 -0.00220991 -0.00220991 -0.00209986 -0.00209988 -0.00220991 -0.00220992 -0.00220991 -0.00220991 -0.00232 -0.00232 -0.00220991 -0.00220992 -0.00232 -0.00232 -0.00209988 -0.0020999 -0.00220992 -0.00220995 -0.0020999 -0.00209993 -0.00220995 -0.00220998 -0.00220992 -0.00220995 -0.00232 -0.00232 -0.00220995 -0.00220998 -0.00232 -0.00232 -0.000558978 -0.000756541 -0.000789161 -0.000833977 -0.000756541 -0.000871345 -0.000833977 -0.000896441 -0.000789161 -0.000833977 -0.000894754 -0.000925948 -0.000833977 -0.000896441 -0.000925948 -0.000955336 -0.000871345 -0.000946175 -0.000896441 -0.000953458 -0.000946175 -0.000998969 -0.000953458 -0.000999738 -0.000896441 -0.000953458 -0.000955336 -0.000989068 -0.000953458 -0.000999738 -0.000989068 -0.00102164 -0.000894754 -0.000925948 -0.000984545 -0.00100183 -0.000925948 -0.000955336 -0.00100183 -0.00101885 -0.000984545 -0.00100183 -0.00106566 -0.00107447 -0.00100183 -0.00101885 -0.00107447 -0.00108227 -0.000955336 -0.000989068 -0.00101885 -0.00103698 -0.000989068 -0.00102164 -0.00103698 -0.00105649 -0.00101885 -0.00103698 -0.00108227 -0.00109069 -0.00103698 -0.00105649 -0.00109069 -0.00110029 -0.000998969 -0.00103675 -0.000999738 -0.00103598 -0.00103675 -0.00106358 -0.00103598 -0.00106378 -0.000999738 -0.00103598 -0.00102164 -0.00105015 -0.00103598 -0.00106378 -0.00105015 -0.00107371 -0.00106358 -0.00108263 -0.00106378 -0.00108464 -0.00108263 -0.00109651 -0.00108464 -0.00109981 -0.00106378 -0.00108464 -0.00107371 -0.00109221 -0.00108464 -0.00109981 -0.00109221 -0.00110584 -0.00102164 -0.00105015 -0.00105649 -0.00107543 -0.00105015 -0.00107371 -0.00107543 -0.00109231 -0.00105649 -0.00107543 -0.00110029 -0.00111066 -0.00107543 -0.00109231 -0.00111066 -0.00112081 -0.00107371 -0.00109221 -0.00109231 -0.00110624 -0.00109221 -0.00110584 -0.00110624 -0.00111677 -0.00109231 -0.00110624 -0.00112081 -0.00112979 -0.00110624 -0.00111677 -0.00112979 -0.00113693 -0.00106566 -0.00107447 -0.00114707 -0.00114928 -0.00107447 -0.00108227 -0.00114928 -0.00115063 -0.00114707 -0.00114928 -0.00123469 -0.00123261 -0.00114928 -0.00115063 -0.00123261 -0.0012299 -0.00108227 -0.00109069 -0.00115063 -0.00115227 -0.00109069 -0.00110029 -0.00115227 -0.00115505 -0.00115063 -0.00115227 -0.0012299 -0.00122755 -0.00115227 -0.00115505 -0.00122755 -0.00122641 -0.00123469 -0.00123261 -0.00133208 -0.00132831 -0.00123261 -0.0012299 -0.00132831 -0.00132421 -0.00133208 -0.00132831 -0.00143851 -0.00143533 -0.00132831 -0.00132421 -0.00143533 -0.00143208 -0.0012299 -0.00122755 -0.00132421 -0.00132063 -0.00122755 -0.00122641 -0.00132063 -0.00131831 -0.00132421 -0.00132063 -0.00143208 -0.00142941 -0.00132063 -0.00131831 -0.00142941 -0.0014278 -0.00110029 -0.00111066 -0.00115505 -0.0011591 -0.00111066 -0.00112081 -0.0011591 -0.001164 -0.00115505 -0.0011591 -0.00122641 -0.00122683 -0.0011591 -0.001164 -0.00122683 -0.00122863 -0.00112081 -0.00112979 -0.001164 -0.00116901 -0.00112979 -0.00113693 -0.00116901 -0.00117342 -0.001164 -0.00116901 -0.00122863 -0.00123122 -0.00116901 -0.00117342 -0.00123122 -0.00123391 -0.00122641 -0.00122683 -0.00131831 -0.00131756 -0.00122683 -0.00122863 -0.00131756 -0.00131822 -0.00131831 -0.00131756 -0.0014278 -0.00142741 -0.00131756 -0.00131822 -0.00142741 -0.001428 -0.00122863 -0.00123122 -0.00131822 -0.00131975 -0.00123122 -0.00123391 -0.00131975 -0.00132151 -0.00131822 -0.00131975 -0.001428 -0.00142912 -0.00131975 -0.00132151 -0.00142912 -0.00143028 -0.00109651 -0.00110692 -0.00109981 -0.0011103 -0.00110692 -0.00111449 -0.0011103 -0.001117 -0.00109981 -0.0011103 -0.00110584 -0.00111507 -0.0011103 -0.001117 -0.00111507 -0.00112064 -0.00111449 -0.00111929 -0.001117 -0.00112077 -0.00111929 -0.0011216 -0.00112077 -0.00112242 -0.001117 -0.00112077 -0.00112064 -0.00112354 -0.00112077 -0.00112242 -0.00112354 -0.0011247 -0.00110584 -0.00111507 -0.00111677 -0.00112393 -0.00111507 -0.00112064 -0.00112393 -0.00112821 -0.00111677 -0.00112393 -0.00113693 -0.00114196 -0.00112393 -0.00112821 -0.00114196 -0.00114508 -0.00112064 -0.00112354 -0.00112821 -0.0011304 -0.00112354 -0.0011247 -0.0011304 -0.00113129 -0.00112821 -0.0011304 -0.00114508 -0.00114675 -0.0011304 -0.00113129 -0.00114675 -0.00114748 -0.0011216 -0.00112218 -0.00112242 -0.00112272 -0.00112218 -0.00112191 -0.00112272 -0.00112237 -0.00112242 -0.00112272 -0.0011247 -0.00112487 -0.00112272 -0.00112237 -0.00112487 -0.00112461 -0.00112191 -0.0011215 -0.00112237 -0.00112193 -0.0011215 -0.00112131 -0.00112193 -0.00112175 -0.00112237 -0.00112193 -0.00112461 -0.00112429 -0.00112193 -0.00112175 -0.00112429 -0.00112416 -0.0011247 -0.00112487 -0.00113129 -0.00113146 -0.00112487 -0.00112461 -0.00113146 -0.0011313 -0.00113129 -0.00113146 -0.00114748 -0.00114763 -0.00113146 -0.0011313 -0.00114763 -0.00114748 -0.00112461 -0.00112429 -0.0011313 -0.00113107 -0.00112429 -0.00112416 -0.00113107 -0.00113098 -0.0011313 -0.00113107 -0.00114748 -0.00114726 -0.00113107 -0.00113098 -0.00114726 -0.00114716 -0.00113693 -0.00114196 -0.00117342 -0.00117678 -0.00114196 -0.00114508 -0.00117678 -0.001179 -0.00117342 -0.00117678 -0.00123391 -0.00123616 -0.00117678 -0.001179 -0.00123616 -0.00123771 -0.00114508 -0.00114675 -0.001179 -0.00118027 -0.00114675 -0.00114748 -0.00118027 -0.00118082 -0.001179 -0.00118027 -0.00123771 -0.00123858 -0.00118027 -0.00118082 -0.00123858 -0.00123889 -0.00123391 -0.00123616 -0.00132151 -0.00132299 -0.00123616 -0.00123771 -0.00132299 -0.00132397 -0.00132151 -0.00132299 -0.00143028 -0.00143114 -0.00132299 -0.00132397 -0.00143114 -0.00143162 -0.00123771 -0.00123858 -0.00132397 -0.00132444 -0.00123858 -0.00123889 -0.00132444 -0.00132451 -0.00132397 -0.00132444 -0.00143162 -0.00143176 -0.00132444 -0.00132451 -0.00143176 -0.00143167 -0.00114748 -0.00114763 -0.00118082 -0.00118088 -0.00114763 -0.00114748 -0.00118088 -0.00118067 -0.00118082 -0.00118088 -0.00123889 -0.00123882 -0.00118088 -0.00118067 -0.00123882 -0.00123855 -0.00114748 -0.00114726 -0.00118067 -0.00118042 -0.00114726 -0.00114716 -0.00118042 -0.0011803 -0.00118067 -0.00118042 -0.00123855 -0.00123828 -0.00118042 -0.0011803 -0.00123828 -0.00123815 -0.00123889 -0.00123882 -0.00132451 -0.00132433 -0.00123882 -0.00123855 -0.00132433 -0.00132406 -0.00132451 -0.00132433 -0.00143167 -0.00143146 -0.00132433 -0.00132406 -0.00143146 -0.00143123 -0.00123855 -0.00123828 -0.00132406 -0.00132382 -0.00123828 -0.00123815 -0.00132382 -0.00132367 -0.00132406 -0.00132382 -0.00143123 -0.00143102 -0.00132382 -0.00132367 -0.00143102 -0.00143088 -0.00143851 -0.00143533 -0.00154952 -0.00154798 -0.00143533 -0.00143208 -0.00154798 -0.0015465 -0.00154952 -0.00154798 -0.00166057 -0.0016603 -0.00154798 -0.0015465 -0.0016603 -0.0016601 -0.00143208 -0.00142941 -0.0015465 -0.00154545 -0.00142941 -0.0014278 -0.00154545 -0.00154505 -0.0015465 -0.00154545 -0.0016601 -0.0016601 -0.00154545 -0.00154505 -0.0016601 -0.00166034 -0.00166057 -0.0016603 -0.00177026 -0.00177038 -0.0016603 -0.0016601 -0.00177038 -0.00177053 -0.00177026 -0.00177038 -0.00187972 -0.00187977 -0.00177038 -0.00177053 -0.00187977 -0.00187982 -0.0016601 -0.0016601 -0.00177053 -0.00177072 -0.0016601 -0.00166034 -0.00177072 -0.00177092 -0.00177053 -0.00177072 -0.00187982 -0.00187987 -0.00177072 -0.00177092 -0.00187987 -0.0018799 -0.0014278 -0.00142741 -0.00154505 -0.00154529 -0.00142741 -0.001428 -0.00154529 -0.00154595 -0.00154505 -0.00154529 -0.00166034 -0.00166074 -0.00154529 -0.00154595 -0.00166074 -0.00166117 -0.001428 -0.00142912 -0.00154595 -0.00154671 -0.00142912 -0.00143028 -0.00154671 -0.00154733 -0.00154595 -0.00154671 -0.00166117 -0.00166151 -0.00154671 -0.00154733 -0.00166151 -0.0016617 -0.00166034 -0.00166074 -0.00177092 -0.00177111 -0.00166074 -0.00166117 -0.00177111 -0.00177123 -0.00177092 -0.00177111 -0.0018799 -0.00187992 -0.00177111 -0.00177123 -0.00187992 -0.00187991 -0.00166117 -0.00166151 -0.00177123 -0.00177129 -0.00166151 -0.0016617 -0.00177129 -0.00177128 -0.00177123 -0.00177129 -0.00187991 -0.0018799 -0.00177129 -0.00177128 -0.0018799 -0.00187987 -0.00187972 -0.00