# vtk DataFile Version 3.0
#This file was generated by the deal.II library on 2022/11/16 at 21:33:08
ASCII
DATASET UNSTRUCTURED_GRID

POINTS 4096 double
0 0.5 0
0.03125 0.5 0
0 0.53125 0
0.03125 0.53125 0
0.03125 0.5 0
0.0625 0.5 0
0.03125 0.53125 0
0.0625 0.53125 0
0 0.53125 0
0.03125 0.53125 0
0 0.5625 0
0.03125 0.5625 0
0.03125 0.53125 0
0.0625 0.53125 0
0.03125 0.5625 0
0.0625 0.5625 0
0.0625 0.5 0
0.09375 0.5 0
0.0625 0.53125 0
0.09375 0.53125 0
0.09375 0.5 0
0.125 0.5 0
0.09375 0.53125 0
0.125 0.53125 0
0.0625 0.53125 0
0.09375 0.53125 0
0.0625 0.5625 0
0.09375 0.5625 0
0.09375 0.53125 0
0.125 0.53125 0
0.09375 0.5625 0
0.125 0.5625 0
0 0.5625 0
0.03125 0.5625 0
0 0.59375 0
0.03125 0.59375 0
0.03125 0.5625 0
0.0625 0.5625 0
0.03125 0.59375 0
0.0625 0.59375 0
0 0.59375 0
0.03125 0.59375 0
0 0.625 0
0.03125 0.625 0
0.03125 0.59375 0
0.0625 0.59375 0
0.03125 0.625 0
0.0625 0.625 0
0.0625 0.5625 0
0.09375 0.5625 0
0.0625 0.59375 0
0.09375 0.59375 0
0.09375 0.5625 0
0.125 0.5625 0
0.09375 0.59375 0
0.125 0.59375 0
0.0625 0.59375 0
0.09375 0.59375 0
0.0625 0.625 0
0.09375 0.625 0
0.09375 0.59375 0
0.125 0.59375 0
0.09375 0.625 0
0.125 0.625 0
0.125 0.5 0
0.15625 0.5 0
0.125 0.53125 0
0.15625 0.53125 0
0.15625 0.5 0
0.1875 0.5 0
0.15625 0.53125 0
0.1875 0.53125 0
0.125 0.53125 0
0.15625 0.53125 0
0.125 0.5625 0
0.15625 0.5625 0
0.15625 0.53125 0
0.1875 0.53125 0
0.15625 0.5625 0
0.1875 0.5625 0
0.1875 0.5 0
0.21875 0.5 0
0.1875 0.53125 0
0.21875 0.53125 0
0.21875 0.5 0
0.25 0.5 0
0.21875 0.53125 0
0.25 0.53125 0
0.1875 0.53125 0
0.21875 0.53125 0
0.1875 0.5625 0
0.21875 0.5625 0
0.21875 0.53125 0
0.25 0.53125 0
0.21875 0.5625 0
0.25 0.5625 0
0.125 0.5625 0
0.15625 0.5625 0
0.125 0.59375 0
0.15625 0.59375 0
0.15625 0.5625 0
0.1875 0.5625 0
0.15625 0.59375 0
0.1875 0.59375 0
0.125 0.59375 0
0.15625 0.59375 0
0.125 0.625 0
0.15625 0.625 0
0.15625 0.59375 0
0.1875 0.59375 0
0.15625 0.625 0
0.1875 0.625 0
0.1875 0.5625 0
0.21875 0.5625 0
0.1875 0.59375 0
0.21875 0.59375 0
0.21875 0.5625 0
0.25 0.5625 0
0.21875 0.59375 0
0.25 0.59375 0
0.1875 0.59375 0
0.21875 0.59375 0
0.1875 0.625 0
0.21875 0.625 0
0.21875 0.59375 0
0.25 0.59375 0
0.21875 0.625 0
0.25 0.625 0
0 0.625 0
0.03125 0.625 0
0 0.65625 0
0.03125 0.65625 0
0.03125 0.625 0
0.0625 0.625 0
0.03125 0.65625 0
0.0625 0.65625 0
0 0.65625 0
0.03125 0.65625 0
0 0.6875 0
0.03125 0.6875 0
0.03125 0.65625 0
0.0625 0.65625 0
0.03125 0.6875 0
0.0625 0.6875 0
0.0625 0.625 0
0.09375 0.625 0
0.0625 0.65625 0
0.09375 0.65625 0
0.09375 0.625 0
0.125 0.625 0
0.09375 0.65625 0
0.125 0.65625 0
0.0625 0.65625 0
0.09375 0.65625 0
0.0625 0.6875 0
0.09375 0.6875 0
0.09375 0.65625 0
0.125 0.65625 0
0.09375 0.6875 0
0.125 0.6875 0
0 0.6875 0
0.03125 0.6875 0
0 0.71875 0
0.03125 0.71875 0
0.03125 0.6875 0
0.0625 0.6875 0
0.03125 0.71875 0
0.0625 0.71875 0
0 0.71875 0
0.03125 0.71875 0
0 0.75 0
0.03125 0.75 0
0.03125 0.71875 0
0.0625 0.71875 0
0.03125 0.75 0
0.0625 0.75 0
0.0625 0.6875 0
0.09375 0.6875 0
0.0625 0.71875 0
0.09375 0.71875 0
0.09375 0.6875 0
0.125 0.6875 0
0.09375 0.71875 0
0.125 0.71875 0
0.0625 0.71875 0
0.09375 0.71875 0
0.0625 0.75 0
0.09375 0.75 0
0.09375 0.71875 0
0.125 0.71875 0
0.09375 0.75 0
0.125 0.75 0
0.125 0.625 0
0.15625 0.625 0
0.125 0.65625 0
0.15625 0.65625 0
0.15625 0.625 0
0.1875 0.625 0
0.15625 0.65625 0
0.1875 0.65625 0
0.125 0.65625 0
0.15625 0.65625 0
0.125 0.6875 0
0.15625 0.6875 0
0.15625 0.65625 0
0.1875 0.65625 0
0.15625 0.6875 0
0.1875 0.6875 0
0.1875 0.625 0
0.21875 0.625 0
0.1875 0.65625 0
0.21875 0.65625 0
0.21875 0.625 0
0.25 0.625 0
0.21875 0.65625 0
0.25 0.65625 0
0.1875 0.65625 0
0.21875 0.65625 0
0.1875 0.6875 0
0.21875 0.6875 0
0.21875 0.65625 0
0.25 0.65625 0
0.21875 0.6875 0
0.25 0.6875 0
0.125 0.6875 0
0.15625 0.6875 0
0.125 0.71875 0
0.15625 0.71875 0
0.15625 0.6875 0
0.1875 0.6875 0
0.15625 0.71875 0
0.1875 0.71875 0
0.125 0.71875 0
0.15625 0.71875 0
0.125 0.75 0
0.15625 0.75 0
0.15625 0.71875 0
0.1875 0.71875 0
0.15625 0.75 0
0.1875 0.75 0
0.1875 0.6875 0
0.21875 0.6875 0
0.1875 0.71875 0
0.21875 0.71875 0
0.21875 0.6875 0
0.25 0.6875 0
0.21875 0.71875 0
0.25 0.71875 0
0.1875 0.71875 0
0.21875 0.71875 0
0.1875 0.75 0
0.21875 0.75 0
0.21875 0.71875 0
0.25 0.71875 0
0.21875 0.75 0
0.25 0.75 0
0.25 0.5 0
0.28125 0.5 0
0.25 0.53125 0
0.28125 0.53125 0
0.28125 0.5 0
0.3125 0.5 0
0.28125 0.53125 0
0.3125 0.53125 0
0.25 0.53125 0
0.28125 0.53125 0
0.25 0.5625 0
0.28125 0.5625 0
0.28125 0.53125 0
0.3125 0.53125 0
0.28125 0.5625 0
0.3125 0.5625 0
0.3125 0.5 0
0.34375 0.5 0
0.3125 0.53125 0
0.34375 0.53125 0
0.34375 0.5 0
0.375 0.5 0
0.34375 0.53125 0
0.375 0.53125 0
0.3125 0.53125 0
0.34375 0.53125 0
0.3125 0.5625 0
0.34375 0.5625 0
0.34375 0.53125 0
0.375 0.53125 0
0.34375 0.5625 0
0.375 0.5625 0
0.25 0.5625 0
0.28125 0.5625 0
0.25 0.59375 0
0.28125 0.59375 0
0.28125 0.5625 0
0.3125 0.5625 0
0.28125 0.59375 0
0.3125 0.59375 0
0.25 0.59375 0
0.28125 0.59375 0
0.25 0.625 0
0.28125 0.625 0
0.28125 0.59375 0
0.3125 0.59375 0
0.28125 0.625 0
0.3125 0.625 0
0.3125 0.5625 0
0.34375 0.5625 0
0.3125 0.59375 0
0.34375 0.59375 0
0.34375 0.5625 0
0.375 0.5625 0
0.34375 0.59375 0
0.375 0.59375 0
0.3125 0.59375 0
0.34375 0.59375 0
0.3125 0.625 0
0.34375 0.625 0
0.34375 0.59375 0
0.375 0.59375 0
0.34375 0.625 0
0.375 0.625 0
0.375 0.5 0
0.40625 0.5 0
0.375 0.53125 0
0.40625 0.53125 0
0.40625 0.5 0
0.4375 0.5 0
0.40625 0.53125 0
0.4375 0.53125 0
0.375 0.53125 0
0.40625 0.53125 0
0.375 0.5625 0
0.40625 0.5625 0
0.40625 0.53125 0
0.4375 0.53125 0
0.40625 0.5625 0
0.4375 0.5625 0
0.4375 0.5 0
0.46875 0.5 0
0.4375 0.53125 0
0.46875 0.53125 0
0.46875 0.5 0
0.5 0.5 0
0.46875 0.53125 0
0.5 0.53125 0
0.4375 0.53125 0
0.46875 0.53125 0
0.4375 0.5625 0
0.46875 0.5625 0
0.46875 0.53125 0
0.5 0.53125 0
0.46875 0.5625 0
0.5 0.5625 0
0.375 0.5625 0
0.40625 0.5625 0
0.375 0.59375 0
0.40625 0.59375 0
0.40625 0.5625 0
0.4375 0.5625 0
0.40625 0.59375 0
0.4375 0.59375 0
0.375 0.59375 0
0.40625 0.59375 0
0.375 0.625 0
0.40625 0.625 0
0.40625 0.59375 0
0.4375 0.59375 0
0.40625 0.625 0
0.4375 0.625 0
0.4375 0.5625 0
0.46875 0.5625 0
0.4375 0.59375 0
0.46875 0.59375 0
0.46875 0.5625 0
0.5 0.5625 0
0.46875 0.59375 0
0.5 0.59375 0
0.4375 0.59375 0
0.46875 0.59375 0
0.4375 0.625 0
0.46875 0.625 0
0.46875 0.59375 0
0.5 0.59375 0
0.46875 0.625 0
0.5 0.625 0
0.25 0.625 0
0.28125 0.625 0
0.25 0.65625 0
0.28125 0.65625 0
0.28125 0.625 0
0.3125 0.625 0
0.28125 0.65625 0
0.3125 0.65625 0
0.25 0.65625 0
0.28125 0.65625 0
0.25 0.6875 0
0.28125 0.6875 0
0.28125 0.65625 0
0.3125 0.65625 0
0.28125 0.6875 0
0.3125 0.6875 0
0.3125 0.625 0
0.34375 0.625 0
0.3125 0.65625 0
0.34375 0.65625 0
0.34375 0.625 0
0.375 0.625 0
0.34375 0.65625 0
0.375 0.65625 0
0.3125 0.65625 0
0.34375 0.65625 0
0.3125 0.6875 0
0.34375 0.6875 0
0.34375 0.65625 0
0.375 0.65625 0
0.34375 0.6875 0
0.375 0.6875 0
0.25 0.6875 0
0.28125 0.6875 0
0.25 0.71875 0
0.28125 0.71875 0
0.28125 0.6875 0
0.3125 0.6875 0
0.28125 0.71875 0
0.3125 0.71875 0
0.25 0.71875 0
0.28125 0.71875 0
0.25 0.75 0
0.28125 0.75 0
0.28125 0.71875 0
0.3125 0.71875 0
0.28125 0.75 0
0.3125 0.75 0
0.3125 0.6875 0
0.34375 0.6875 0
0.3125 0.71875 0
0.34375 0.71875 0
0.34375 0.6875 0
0.375 0.6875 0
0.34375 0.71875 0
0.375 0.71875 0
0.3125 0.71875 0
0.34375 0.71875 0
0.3125 0.75 0
0.34375 0.75 0
0.34375 0.71875 0
0.375 0.71875 0
0.34375 0.75 0
0.375 0.75 0
0.375 0.625 0
0.40625 0.625 0
0.375 0.65625 0
0.40625 0.65625 0
0.40625 0.625 0
0.4375 0.625 0
0.40625 0.65625 0
0.4375 0.65625 0
0.375 0.65625 0
0.40625 0.65625 0
0.375 0.6875 0
0.40625 0.6875 0
0.40625 0.65625 0
0.4375 0.65625 0
0.40625 0.6875 0
0.4375 0.6875 0
0.4375 0.625 0
0.46875 0.625 0
0.4375 0.65625 0
0.46875 0.65625 0
0.46875 0.625 0
0.5 0.625 0
0.46875 0.65625 0
0.5 0.65625 0
0.4375 0.65625 0
0.46875 0.65625 0
0.4375 0.6875 0
0.46875 0.6875 0
0.46875 0.65625 0
0.5 0.65625 0
0.46875 0.6875 0
0.5 0.6875 0
0.375 0.6875 0
0.40625 0.6875 0
0.375 0.71875 0
0.40625 0.71875 0
0.40625 0.6875 0
0.4375 0.6875 0
0.40625 0.71875 0
0.4375 0.71875 0
0.375 0.71875 0
0.40625 0.71875 0
0.375 0.75 0
0.40625 0.75 0
0.40625 0.71875 0
0.4375 0.71875 0
0.40625 0.75 0
0.4375 0.75 0
0.4375 0.6875 0
0.46875 0.6875 0
0.4375 0.71875 0
0.46875 0.71875 0
0.46875 0.6875 0
0.5 0.6875 0
0.46875 0.71875 0
0.5 0.71875 0
0.4375 0.71875 0
0.46875 0.71875 0
0.4375 0.75 0
0.46875 0.75 0
0.46875 0.71875 0
0.5 0.71875 0
0.46875 0.75 0
0.5 0.75 0
0 0.75 0
0.03125 0.75 0
0 0.78125 0
0.03125 0.78125 0
0.03125 0.75 0
0.0625 0.75 0
0.03125 0.78125 0
0.0625 0.78125 0
0 0.78125 0
0.03125 0.78125 0
0 0.8125 0
0.03125 0.8125 0
0.03125 0.78125 0
0.0625 0.78125 0
0.03125 0.8125 0
0.0625 0.8125 0
0.0625 0.75 0
0.09375 0.75 0
0.0625 0.78125 0
0.09375 0.78125 0
0.09375 0.75 0
0.125 0.75 0
0.09375 0.78125 0
0.125 0.78125 0
0.0625 0.78125 0
0.09375 0.78125 0
0.0625 0.8125 0
0.09375 0.8125 0
0.09375 0.78125 0
0.125 0.78125 0
0.09375 0.8125 0
0.125 0.8125 0
0 0.8125 0
0.03125 0.8125 0
0 0.84375 0
0.03125 0.84375 0
0.03125 0.8125 0
0.0625 0.8125 0
0.03125 0.84375 0
0.0625 0.84375 0
0 0.84375 0
0.03125 0.84375 0
0 0.875 0
0.03125 0.875 0
0.03125 0.84375 0
0.0625 0.84375 0
0.03125 0.875 0
0.0625 0.875 0
0.0625 0.8125 0
0.09375 0.8125 0
0.0625 0.84375 0
0.09375 0.84375 0
0.09375 0.8125 0
0.125 0.8125 0
0.09375 0.84375 0
0.125 0.84375 0
0.0625 0.84375 0
0.09375 0.84375 0
0.0625 0.875 0
0.09375 0.875 0
0.09375 0.84375 0
0.125 0.84375 0
0.09375 0.875 0
0.125 0.875 0
0.125 0.75 0
0.15625 0.75 0
0.125 0.78125 0
0.15625 0.78125 0
0.15625 0.75 0
0.1875 0.75 0
0.15625 0.78125 0
0.1875 0.78125 0
0.125 0.78125 0
0.15625 0.78125 0
0.125 0.8125 0
0.15625 0.8125 0
0.15625 0.78125 0
0.1875 0.78125 0
0.15625 0.8125 0
0.1875 0.8125 0
0.1875 0.75 0
0.21875 0.75 0
0.1875 0.78125 0
0.21875 0.78125 0
0.21875 0.75 0
0.25 0.75 0
0.21875 0.78125 0
0.25 0.78125 0
0.1875 0.78125 0
0.21875 0.78125 0
0.1875 0.8125 0
0.21875 0.8125 0
0.21875 0.78125 0
0.25 0.78125 0
0.21875 0.8125 0
0.25 0.8125 0
0.125 0.8125 0
0.15625 0.8125 0
0.125 0.84375 0
0.15625 0.84375 0
0.15625 0.8125 0
[...]
POINT_DATA 4096
SCALARS x_dis double 1
LOOKUP_TABLE default
-0.000238931 -0.000238926 -0.000343121 -0.000343113 -0.000238926 -0.000238921 -0.000343113 -0.000343107 -0.000343121 -0.000343113 -0.000451177 -0.000451167 -0.000343113 -0.000343107 -0.000451167 -0.000451159 -0.000238921 -0.000238916 -0.000343107 -0.000343102 -0.000238916 -0.000238911 -0.000343102 -0.000343099 -0.000343107 -0.000343102 -0.000451159 -0.000451155 -0.000343102 -0.000343099 -0.000451155 -0.000451153 -0.000451177 -0.000451167 -0.000560594 -0.000560582 -0.000451167 -0.000451159 -0.000560582 -0.000560572 -0.000560594 -0.000560582 -0.000670413 -0.000670399 -0.000560582 -0.000560572 -0.000670399 -0.000670387 -0.000451159 -0.000451155 -0.000560572 -0.000560567 -0.000451155 -0.000451153 -0.000560567 -0.000560566 -0.000560572 -0.000560567 -0.000670387 -0.00067038 -0.000560567 -0.000560566 -0.00067038 -0.000670379 -0.000238911 -0.000238906 -0.000343099 -0.000343094 -0.000238906 -0.0002389 -0.000343094 -0.000343081 -0.000343099 -0.000343094 -0.000451153 -0.000451149 -0.000343094 -0.000343081 -0.000451149 -0.000451131 -0.0002389 -0.000238892 -0.000343081 -0.000343053 -0.000238892 -0.000238882 -0.000343053 -0.000342998 -0.000343081 -0.000343053 -0.000451131 -0.000451088 -0.000343053 -0.000342998 -0.000451088 -0.000451003 -0.000451153 -0.000451149 -0.000560566 -0.000560563 -0.000451149 -0.000451131 -0.000560563 -0.000560544 -0.000560566 -0.000560563 -0.000670379 -0.000670378 -0.000560563 -0.000560544 -0.000670378 -0.000670362 -0.000451131 -0.000451088 -0.000560544 -0.000560495 -0.000451088 -0.000451003 -0.000560495 -0.000560401 -0.000560544 -0.000560495 -0.000670362 -0.000670316 -0.000560495 -0.000560401 -0.000670316 -0.000670226 -0.000670413 -0.000670399 -0.000780336 -0.00078032 -0.000670399 -0.000670387 -0.00078032 -0.000780306 -0.000780336 -0.00078032 -0.000890284 -0.000890267 -0.00078032 -0.000780306 -0.000890267 -0.00089025 -0.000670387 -0.00067038 -0.000780306 -0.000780296 -0.00067038 -0.000670379 -0.000780296 -0.000780293 -0.000780306 -0.000780296 -0.00089025 -0.000890238 -0.000780296 -0.000780293 -0.000890238 -0.000890231 -0.000890284 -0.000890267 -0.00100024 -0.00100022 -0.000890267 -0.00089025 -0.00100022 -0.0010002 -0.00100024 -0.00100022 -0.0011102 -0.00111018 -0.00100022 -0.0010002 -0.00111018 -0.00111016 -0.00089025 -0.000890238 -0.0010002 -0.00100019 -0.000890238 -0.000890231 -0.00100019 -0.00100018 -0.0010002 -0.00100019 -0.00111016 -0.00111015 -0.00100019 -0.00100018 -0.00111015 -0.00111013 -0.000670379 -0.000670378 -0.000780293 -0.000780293 -0.000670378 -0.000670362 -0.000780293 -0.000780284 -0.000780293 -0.000780293 -0.000890231 -0.000890231 -0.000780293 -0.000780284 -0.000890231 -0.000890228 -0.000670362 -0.000670316 -0.000780284 -0.000780248 -0.000670316 -0.000670226 -0.000780248 -0.000780172 -0.000780284 -0.000780248 -0.000890228 -0.000890206 -0.000780248 -0.000780172 -0.000890206 -0.000890152 -0.000890231 -0.000890231 -0.00100018 -0.00100018 -0.000890231 -0.000890228 -0.00100018 -0.00100017 -0.00100018 -0.00100018 -0.00111013 -0.00111013 -0.00100018 -0.00100017 -0.00111013 -0.00111012 -0.000890228 -0.000890206 -0.00100017 -0.00100017 -0.000890206 -0.000890152 -0.00100017 -0.00100014 -0.00100017 -0.00100017 -0.00111012 -0.00111012 -0.00100017 -0.00100014 -0.00111012 -0.00111011 -0.000238882 -0.000238872 -0.000342998 -0.000342914 -0.000238872 -0.000238869 -0.000342914 -0.000342855 -0.000342998 -0.000342914 -0.000451003 -0.000450869 -0.000342914 -0.000342855 -0.000450869 -0.000450752 -0.000238869 -0.000238881 -0.000342855 -0.000343013 -0.000238881 -0.000238906 -0.000343013 -0.000343796 -0.000342855 -0.000343013 -0.000450752 -0.000450903 -0.000343013 -0.000343796 -0.000450903 -0.00045185 -0.000451003 -0.000450869 -0.000560401 -0.000560252 -0.000450869 -0.000450752 -0.000560252 -0.000560097 -0.000560401 -0.000560252 -0.000670226 -0.000670089 -0.000560252 -0.000560097 -0.000670089 -0.000669934 -0.000450752 -0.000450903 -0.000560097 -0.000560127 -0.000450903 -0.00045185 -0.000560127 -0.000560716 -0.000560097 -0.000560127 -0.000669934 -0.000669865 -0.000560127 -0.000560716 -0.000669865 -0.00067005 -0.000238906 -0.000238924 -0.000343796 -0.000345958 -0.000238924 -0.000238893 -0.000345958 -0.000351015 -0.000343796 -0.000345958 -0.00045185 -0.000454461 -0.000345958 -0.000351015 -0.000454461 -0.0004599 -0.000238893 -0.000238688 -0.000351015 -0.000362274 -0.000238688 -0.000238382 -0.000362274 -0.000390112 -0.000351015 -0.000362274 -0.0004599 -0.000469615 -0.000362274 -0.000390112 -0.000469615 -0.000478329 -0.00045185 -0.000454461 -0.000560716 -0.000562316 -0.000454461 -0.0004599 -0.000562316 -0.000565188 -0.000560716 -0.000562316 -0.00067005 -0.00067057 -0.000562316 -0.000565188 -0.00067057 -0.000671092 -0.0004599 -0.000469615 -0.000565188 -0.000568147 -0.000469615 -0.000478329 -0.000568147 -0.000570008 -0.000565188 -0.000568147 -0.000671092 -0.000670955 -0.000568147 -0.000570008 -0.000670955 -0.000669423 -0.000670226 -0.000670089 -0.000780172 -0.000780053 -0.000670089 -0.000669934 -0.000780053 -0.000779914 -0.000780172 -0.000780053 -0.000890152 -0.000890056 -0.000780053 -0.000779914 -0.000890056 -0.000889932 -0.000669934 -0.000669865 -0.000779914 -0.000779815 -0.000669865 -0.00067005 -0.000779815 -0.000779823 -0.000779914 -0.000779815 -0.000889932 -0.00088982 -0.000779815 -0.000779823 -0.00088982 -0.000889777 -0.000890152 -0.000890056 -0.00100014 -0.00100007 -0.000890056 -0.000889932 -0.00100007 -0.000999975 -0.00100014 -0.00100007 -0.00111011 -0.00111008 -0.00100007 -0.000999975 -0.00111008 -0.00111003 -0.000889932 -0.00088982 -0.000999975 -0.000999857 -0.00088982 -0.000889777 -0.000999857 -0.000999767 -0.000999975 -0.000999857 -0.00111003 -0.00110994 -0.000999857 -0.000999767 -0.00110994 -0.00110984 -0.00067005 -0.00067057 -0.000779823 -0.00077989 -0.00067057 -0.000671092 -0.00077989 -0.000779766 -0.000779823 -0.00077989 -0.000889777 -0.000889817 -0.00077989 -0.000779766 -0.000889817 -0.000889849 -0.000671092 -0.000670955 -0.000779766 -0.00077904 -0.000670955 -0.000669423 -0.00077904 -0.000777511 -0.000779766 -0.00077904 -0.000889849 -0.000889725 -0.00077904 -0.000777511 -0.000889725 -0.000889374 -0.000889777 -0.000889817 -0.000999767 -0.000999766 -0.000889817 -0.000889849 -0.000999766 -0.000999891 -0.000999767 -0.000999766 -0.00110984 -0.00110976 -0.000999766 -0.000999891 -0.00110976 -0.00110976 -0.000889849 -0.000889725 -0.000999891 -0.00100013 -0.000889725 -0.000889374 -0.00100013 -0.00100047 -0.000999891 -0.00100013 -0.00110976 -0.00110988 -0.00100013 -0.00100047 -0.00110988 -0.00111012 -0.0011102 -0.00111018 -0.00122017 -0.00122015 -0.00111018 -0.00111016 -0.00122015 -0.00122013 -0.00122017 -0.00122015 -0.00133015 -0.00133012 -0.00122015 -0.00122013 -0.00133012 -0.0013301 -0.00111016 -0.00111015 -0.00122013 -0.00122011 -0.00111015 -0.00111013 -0.00122011 -0.00122009 -0.00122013 -0.00122011 -0.0013301 -0.00133008 -0.00122011 -0.00122009 -0.00133008 -0.00133006 -0.00133015 -0.00133012 -0.00144013 -0.0014401 -0.00133012 -0.0013301 -0.0014401 -0.00144008 -0.00144013 -0.0014401 -0.00155011 -0.00155008 -0.0014401 -0.00144008 -0.00155008 -0.00155006 -0.0013301 -0.00133008 -0.00144008 -0.00144005 -0.00133008 -0.00133006 -0.00144005 -0.00144004 -0.00144008 -0.00144005 -0.00155006 -0.00155004 -0.00144005 -0.00144004 -0.00155004 -0.00155002 -0.00111013 -0.00111013 -0.00122009 -0.00122008 -0.00111013 -0.00111012 -0.00122008 -0.00122008 -0.00122009 -0.00122008 -0.00133006 -0.00133005 -0.00122008 -0.00122008 -0.00133005 -0.00133004 -0.00111012 -0.00111012 -0.00122008 -0.00122007 -0.00111012 -0.00111011 -0.00122007 -0.00122007 -0.00122008 -0.00122007 -0.00133004 -0.00133003 -0.00122007 -0.00122007 -0.00133003 -0.00133003 -0.00133006 -0.00133005 -0.00144004 -0.00144002 -0.00133005 -0.00133004 -0.00144002 -0.00144001 -0.00144004 -0.00144002 -0.00155002 -0.00155 -0.00144002 -0.00144001 -0.00155 -0.00154999 -0.00133004 -0.00133003 -0.00144001 -0.00144 -0.00133003 -0.00133003 -0.00144 -0.00144 -0.00144001 -0.00144 -0.00154999 -0.00154998 -0.00144 -0.00144 -0.00154998 -0.00154997 -0.00155011 -0.00155008 -0.0016601 -0.00166007 -0.00155008 -0.00155006 -0.00166007 -0.00166004 -0.0016601 -0.00166007 -0.00177009 -0.00177005 -0.00166007 -0.00166004 -0.00177005 -0.00177003 -0.00155006 -0.00155004 -0.00166004 -0.00166002 -0.00155004 -0.00155002 -0.00166002 -0.00166 -0.00166004 -0.00166002 -0.00177003 -0.00177001 -0.00166002 -0.00166 -0.00177001 -0.00177 -0.00177009 -0.00177005 -0.00188007 -0.00188003 -0.00177005 -0.00177003 -0.00188003 -0.00188001 -0.00188007 -0.00188003 -0.00199 -0.00199 -0.00188003 -0.00188001 -0.00199 -0.00199 -0.00177003 -0.00177001 -0.00188001 -0.00188 -0.00177001 -0.00177 -0.00188 -0.00188 -0.00188001 -0.00188 -0.00199 -0.00199 -0.00188 -0.00188 -0.00199 -0.00199 -0.00155002 -0.00155 -0.00166 -0.00165999 -0.00155 -0.00154999 -0.00165999 -0.00165998 -0.00166 -0.00165999 -0.00177 -0.00176999 -0.00165999 -0.00165998 -0.00176999 -0.00176998 -0.00154999 -0.00154998 -0.00165998 -0.00165997 -0.00154998 -0.00154997 -0.00165997 -0.00165996 -0.00165998 -0.00165997 -0.00176998 -0.00176997 -0.00165997 -0.00165996 -0.00176997 -0.00176997 -0.00177 -0.00176999 -0.00188 -0.00187999 -0.00176999 -0.00176998 -0.00187999 -0.00187999 -0.00188 -0.00187999 -0.00199 -0.00199 -0.00187999 -0.00187999 -0.00199 -0.00199 -0.00176998 -0.00176997 -0.00187999 -0.00187998 -0.00176997 -0.00176997 -0.00187998 -0.00187998 -0.00187999 -0.00187998 -0.00199 -0.00199 -0.00187998 -0.00187998 -0.00199 -0.00199 -0.00111011 -0.00111008 -0.00122007 -0.00122006 -0.00111008 -0.00111003 -0.00122006 -0.00122004 -0.00122007 -0.00122006 -0.00133003 -0.00133003 -0.00122006 -0.00122004 -0.00133003 -0.00133002 -0.00111003 -0.00110994 -0.00122004 -0.00122001 -0.00110994 -0.00110984 -0.00122001 -0.00121996 -0.00122004 -0.00122001 -0.00133002 -0.00133002 -0.00122001 -0.00121996 -0.00133002 -0.00133001 -0.00133003 -0.00133003 -0.00144 -0.00144 -0.00133003 -0.00133002 -0.00144 -0.00143999 -0.00144 -0.00144 -0.00154997 -0.00154997 -0.00144 -0.00143999 -0.00154997 -0.00154997 -0.00133002 -0.00133002 -0.00143999 -0.00143999 -0.00133002 -0.00133001 -0.00143999 -0.00143999 -0.00143999 -0.00143999 -0.00154997 -0.00154997 -0.00143999 -0.00143999 -0.00154997 -0.00154996 -0.00110984 -0.00110976 -0.00121996 -0.00121989 -0.00110976 -0.00110976 -0.00121989 -0.00121983 -0.00121996 -0.00121989 -0.00133001 -0.00132999 -0.00121989 -0.00121983 -0.00132999 -0.00132997 -0.00110976 -0.00110988 -0.00121983 -0.00121979 -0.00110988 -0.00111012 -0.00121979 -0.00121979 -0.00121983 -0.00121979 -0.00132997 -0.00132994 -0.00121979 -0.00121979 -0.00132994 -0.00132991 -0.00133001 -0.00132999 -0.00143999 -0.00143999 -0.00132999 -0.00132997 -0.00143999 -0.00143999 -0.00143999 -0.00143999 -0.00154996 -0.00154996 -0.00143999 -0.00143999 -0.00154996 -0.00154995 -0.00132997 -0.00132994 -0.00143999 -0.00143999 -0.00132994 -0.00132991 -0.00143999 -0.00143999 -0.00143999 -0.00143999 -0.00154995 -0.00154995 -0.00143999 -0.00143999 -0.00154995 -0.00154994 -0.00154997 -0.00154997 -0.00165996 -0.00165996 -0.00154997 -0.00154997 -0.00165996 -0.00165996 -0.00165996 -0.00165996 -0.00176997 -0.00176996 -0.00165996 -0.00165996 -0.00176996 -0.00176996 -0.00154997 -0.00154997 -0.00165996 -0.00165996 -0.00154997 -0.00154996 -0.00165996 -0.00165996 -0.00165996 -0.00165996 -0.00176996 -0.00176996 -0.00165996 -0.00165996 -0.00176996 -0.00176996 -0.00176997 -0.00176996 -0.00187998 -0.00187998 -0.00176996 -0.00176996 -0.00187998 -0.00187997 -0.00187998 -0.00187998 -0.00199 -0.00199 -0.00187998 -0.00187997 -0.00199 -0.00199 -0.00176996 -0.00176996 -0.00187997 -0.00187997 -0.00176996 -0.00176996 -0.00187997 -0.00187997 -0.00187997 -0.00187997 -0.00199 -0.00199 -0.00187997 -0.00187997 -0.00199 -0.00199 -0.00154996 -0.00154996 -0.00165996 -0.00165995 -0.00154996 -0.00154995 -0.00165995 -0.00165994 -0.00165996 -0.00165995 -0.00176996 -0.00176995 -0.00165995 -0.00165994 -0.00176995 -0.00176995 -0.00154995 -0.00154995 -0.00165994 -0.00165994 -0.00154995 -0.00154994 -0.00165994 -0.00165993 -0.00165994 -0.00165994 -0.00176995 -0.00176995 -0.00165994 -0.00165993 -0.00176995 -0.00176995 -0.00176996 -0.00176995 -0.00187997 -0.00187997 -0.00176995 -0.00176995 -0.00187997 -0.00187997 -0.00187997 -0.00187997 -0.00199 -0.00199 -0.00187997 -0.00187997 -0.00199 -0.00199 -0.00176995 -0.00176995 -0.00187997 -0.00187997 -0.00176995 -0.00176995 -0.00187997 -0.00187997 -0.00187997 -0.00187997 -0.00199 -0.00199 -0.00187997 -0.00187997 -0.00199 -0.00199 -0.000238382 -0.000356871 -0.000390112 -0.000408662 -0.000356871 -0.000416992 -0.000408662 -0.0004372 -0.000390112 -0.000408662 -0.000478329 -0.000486539 -0.000408662 -0.0004372 -0.000486539 -0.000493306 -0.000416992 -0.000448342 -0.0004372 -0.000460199 -0.000448342 -0.000464821 -0.000460199 -0.000475243 -0.0004372 -0.000460199 -0.000493306 -0.000502532 -0.000460199 -0.000475243 -0.000502532 -0.000510574 -0.000478329 -0.000486539 -0.000570008 -0.00056981 -0.000486539 -0.000493306 -0.00056981 -0.000569668 -0.000570008 -0.00056981 -0.000669423 -0.000666798 -0.00056981 -0.000569668 -0.000666798 -0.000664143 -0.000493306 -0.000502532 -0.000569668 -0.000570684 -0.000502532 -0.000510574 -0.000570684 -0.000572916 -0.000569668 -0.000570684 -0.000664143 -0.000662677 -0.000570684 -0.000572916 -0.000662677 -0.000662513 -0.000464821 -0.000473189 -0.000475243 -0.000483741 -0.000473189 -0.000477327 -0.000483741 -0.000487603 -0.000475243 -0.000483741 -0.000510574 -0.000515823 -0.000483741 -0.000487603 -0.000515823 -0.000518251 -0.000477327 -0.000479095 -0.000487603 -0.000488606 -0.000479095 -0.000479305 -0.000488606 -0.000488217 -0.000487603 -0.000488606 -0.000518251 -0.000518685 -0.000488606 -0.000488217 -0.000518685 -0.000518192 -0.000510574 -0.000515823 -0.000572916 -0.000574951 -0.000515823 -0.000518251 -0.000574951 -0.000576013 -0.000572916 -0.000574951 -0.000662513 -0.000663025 -0.000574951 -0.000576013 -0.000663025 -0.000663445 -0.000518251 -0.000518685 -0.000576013 -0.000576128 -0.000518685 -0.000518192 -0.000576128 -0.000575758 -0.000576013 -0.000576128 -0.000663445 -0.000663476 -0.000576128 -0.000575758 -0.000663476 -0.00066323 -0.000669423 -0.000666798 -0.000777511 -0.000775452 -0.000666798 -0.000664143 -0.000775452 -0.000773597 -0.000777511 -0.000775452 -0.000889374 -0.000888939 -0.000775452 -0.000773597 -0.000888939 -0.000888689 -0.000664143 -0.000662677 -0.000773597 -0.000772555 -0.000662677 -0.000662513 -0.000772555 -0.000772413 -0.000773597 -0.000772555 -0.000888689 -0.000888798 -0.000772555 -0.000772413 -0.000888798 -0.000889164 -0.000889374 -0.000888939 -0.00100047 -0.00100089 -0.000888939 -0.000888689 -0.00100089 -0.00100138 -0.00100047 -0.00100089 -0.00111012 -0.00111043 -0.00100089 -0.00100138 -0.00111043 -0.00111072 -0.000888689 -0.000888798 -0.00100138 -0.00100187 -0.000888798 -0.000889164 -0.00100187 -0.00100223 -0.00100138 -0.00100187 -0.00111072 -0.00111092 -0.00100187 -0.00100223 -0.00111092 -0.00111096 -0.000662513 -0.000663025 -0.000772413 -0.000772724 -0.000663025 -0.000663445 -0.000772724 -0.000772983 -0.000772413 -0.000772724 -0.000889164 -0.000889511 -0.000772724 -0.000772983 -0.000889511 -0.000889621 -0.000663445 -0.000663476 -0.000772983 -0.000772964 -0.000663476 -0.00066323 -0.000772964 -0.00077274 -0.000772983 -0.000772964 -0.000889621 -0.000889489 -0.000772964 -0.00077274 -0.000889489 -0.000889252 -0.000889164 -0.000889511 -0.00100223 -0.00100235 -0.000889511 -0.000889621 -0.00100235 -0.00100226 -0.00100223 -0.00100235 -0.00111096 -0.00111086 -0.00100235 -0.00100226 -0.00111086 -0.00111071 -0.000889621 -0.000889489 -0.00100226 -0.00100206 -0.000889489 -0.000889252 -0.00100206 -0.00100188 -0.00100226 -0.00100206 -0.00111071 -0.00111057 -0.00100206 -0.00100188 -0.00111057 -0.00111049 -0.000479305 -0.000478656 -0.000488217 -0.000487453 -0.000478656 -0.0004779 -0.000487453 -0.000486849 -0.000488217 -0.000487453 -0.000518192 -0.000517566 -0.000487453 -0.000486849 -0.000517566 -0.000517147 -0.0004779 -0.000477473 -0.000486849 -0.000486559 -0.000477473 -0.000477378 -0.000486559 -0.000486518 -0.000486849 -0.000486559 -0.000517147 -0.000516962 -0.000486559 -0.000486518 -0.000516962 -0.000516931 -0.000518192 -0.000517566 -0.000575758 -0.000575333 -0.000517566 -0.000517147 -0.000575333 -0.000575038 -0.000575758 -0.000575333 -0.00066323 -0.000662921 -0.000575333 -0.000575038 -0.000662921 -0.000662679 -0.000517147 -0.000516962 -0.000575038 -0.000574886 -0.000516962 -0.000516931 -0.000574886 -0.000574842 -0.000575038 -0.000574886 -0.000662679 -0.000662546 -0.000574886 -0.000574842 -0.000662546 -0.000662511 -0.000477378 -0.000477436 -0.000486518 -0.000486583 -0.000477436 -0.00047751 -0.000486583 -0.000486644 -0.000486518 -0.000486583 -0.000516931 -0.000516966 -0.000486583 -0.000486644 -0.000516966 -0.000517005 -0.00047751 -0.000477551 -0.000486644 -0.000486669 -0.000477551 -0.000477562 -0.000486669 -0.000486672 -0.000486644 -0.000486669 -0.000517005 -0.000517023 -0.000486669 -0.000486672 -0.000517023 -0.000517025 -0.000516931 -0.000516966 -0.000574842 -0.000574859 -0.000516966 -0.000517005 -0.000574859 -0.000574891 -0.000574842 -0.000574859 -0.000662511 -0.000662534 -0.000574859 -0.000574891 -0.000662534 -0.000662564 -0.000517005 -0.000517023 -0.000574891 -0.00057491 -0.000517023 -0.000517025 -0.00057491 -0.00057491 -0.000574891 -0.00057491 -0.000662564 -0.000662576 -0.00057491 -0.00057491 -0.000662576 -0.00066257 -0.00066323 -0.000662921 -0.00077274 -0.000772476 -0.000662921 -0.000662679 -0.000772476 -0.000772283 -0.00077274 -0.000772476 -0.000889252 -0.000889046 -0.000772476 -0.000772283 -0.000889046 -0.00088893 -0.000662679 -0.000662546 -0.000772283 -0.000772195 -0.000662546 -0.000662511 -0.000772195 -0.000772191 -0.000772283 -0.000772195 -0.00088893 -0.0008889 -0.000772195 -0.000772191 -0.0008889 -0.000888917 -0.000889252 -0.000889046 -0.00100188 -0.00100177 -0.000889046 -0.00088893 -0.00100177 -0.00100173 -0.00100188 -0.00100177 -0.00111049 -0.00111046 -0.00100177 -0.00100173 -0.00111046 -0.00111046 -0.00088893 -0.0008889 -0.00100173 -0.00100173 -0.0008889 -0.000888917 -0.00100173 -0.00100175 -0.00100173 -0.00100173 -0.00111046 -0.00111047 -0.00100173 -0.00100175 -0.00111047 -0.00111048 -0.000662511 -0.000662534 -0.000772191 -0.00077222 -0.000662534 -0.000662564 -0.00077222 -0.000772241 -0.000772191 -0.00077222 -0.000888917 -0.00088894 -0.00077222 -0.000772241 -0.00088894 -0.000888946 -0.000662564 -0.000662576 -0.000772241 -0.00077224 -0.000662576 -0.00066257 -0.00077224 -0.000772227 -0.000772241 -0.00077224 -0.000888946 -0.000888936 -0.00077224 -0.000772227 -0.000888936 -0.000888918 -0.000888917 -0.00088894 -0.00100175 -0.00100176 -0.00088894 -0.000888946 -0.00100176 -0.00100176 -0.00100175 -0.00100176 -0.00111048 -0.00111048 -0.00100176 -0.00100176 -0.00111048 -0.00111047 -0.000888946 -0.000888936 -0.00100176 -0.00100174 -0.000888936 -0.000888918 -0.00100174 -0.00100172 -0.00100176 -0.00100174 -0.00111047 -0.00111045 -0.00100174 -0.00100172 -0.00111045 -0.00111043 -0.00111012 -0.00111043 -0.00121979 -0.00121981 -0.00111043 -0.00111072 -0.00121981 -0.00121981 -0.00121979 -0.00121981 -0.00132991 -0.00132988 -0.00121981 -0.00121981 -0.00132988 -0.00132984 -0.00111072 -0.00111092 -0.00121981 -0.00121976 -0.00111092 -0.00111096 -0.00121976 -0.00121968 -0.00121981 -0.00121976 -0.00132984 -0.0013298 -0.00121976 -0.00121968 -0.0013298 -0.00132977 -0.00132991 -0.00132988 -0.00143999 -0.00143999 -0.00132988 -0.00132984 -0.00143999 -0.00143999 -0.00143999 -0.00143999 -0.00154994 -0.00154994 -0.00143999 -0.00143999 -0.00154994 -0.00154993 -0.00132984 -0.0013298 -0.00143999 -0.00143999 -0.0013298 -0.00132977 -0.00143999 -0.00143999 -0.00143999 -0.00143999 -0.00154993 -0.00154992 -0.00143999 -0.00143999 -0.00154992 -0.00154991 -0.00111096 -0.00111086 -0.00121968 -0.00121958 -0.00111086 -0.00111071 -0.00121958 -0.00121951 -0.00121968 -0.00121958 -0.00132977 -0.00132976 -0.00121958 -0.00121951 -0.00132976 -0.00132975 -0.00111071 -0