# vtk DataFile Version 3.0
#This file was generated by the deal.II library on 2022/11/16 at 21:18:06
ASCII
DATASET UNSTRUCTURED_GRID

POINTS 4096 double
0 0.5 0
0.03125 0.5 0
0 0.53125 0
0.03125 0.53125 0
0.03125 0.5 0
0.0625 0.5 0
0.03125 0.53125 0
0.0625 0.53125 0
0 0.53125 0
0.03125 0.53125 0
0 0.5625 0
0.03125 0.5625 0
0.03125 0.53125 0
0.0625 0.53125 0
0.03125 0.5625 0
0.0625 0.5625 0
0.0625 0.5 0
0.09375 0.5 0
0.0625 0.53125 0
0.09375 0.53125 0
0.09375 0.5 0
0.125 0.5 0
0.09375 0.53125 0
0.125 0.53125 0
0.0625 0.53125 0
0.09375 0.53125 0
0.0625 0.5625 0
0.09375 0.5625 0
0.09375 0.53125 0
0.125 0.53125 0
0.09375 0.5625 0
0.125 0.5625 0
0 0.5625 0
0.03125 0.5625 0
0 0.59375 0
0.03125 0.59375 0
0.03125 0.5625 0
0.0625 0.5625 0
0.03125 0.59375 0
0.0625 0.59375 0
0 0.59375 0
0.03125 0.59375 0
0 0.625 0
0.03125 0.625 0
0.03125 0.59375 0
0.0625 0.59375 0
0.03125 0.625 0
0.0625 0.625 0
0.0625 0.5625 0
0.09375 0.5625 0
0.0625 0.59375 0
0.09375 0.59375 0
0.09375 0.5625 0
0.125 0.5625 0
0.09375 0.59375 0
0.125 0.59375 0
0.0625 0.59375 0
0.09375 0.59375 0
0.0625 0.625 0
0.09375 0.625 0
0.09375 0.59375 0
0.125 0.59375 0
0.09375 0.625 0
0.125 0.625 0
0.125 0.5 0
0.15625 0.5 0
0.125 0.53125 0
0.15625 0.53125 0
0.15625 0.5 0
0.1875 0.5 0
0.15625 0.53125 0
0.1875 0.53125 0
0.125 0.53125 0
0.15625 0.53125 0
0.125 0.5625 0
0.15625 0.5625 0
0.15625 0.53125 0
0.1875 0.53125 0
0.15625 0.5625 0
0.1875 0.5625 0
0.1875 0.5 0
0.21875 0.5 0
0.1875 0.53125 0
0.21875 0.53125 0
0.21875 0.5 0
0.25 0.5 0
0.21875 0.53125 0
0.25 0.53125 0
0.1875 0.53125 0
0.21875 0.53125 0
0.1875 0.5625 0
0.21875 0.5625 0
0.21875 0.53125 0
0.25 0.53125 0
0.21875 0.5625 0
0.25 0.5625 0
0.125 0.5625 0
0.15625 0.5625 0
0.125 0.59375 0
0.15625 0.59375 0
0.15625 0.5625 0
0.1875 0.5625 0
0.15625 0.59375 0
0.1875 0.59375 0
0.125 0.59375 0
0.15625 0.59375 0
0.125 0.625 0
0.15625 0.625 0
0.15625 0.59375 0
0.1875 0.59375 0
0.15625 0.625 0
0.1875 0.625 0
0.1875 0.5625 0
0.21875 0.5625 0
0.1875 0.59375 0
0.21875 0.59375 0
0.21875 0.5625 0
0.25 0.5625 0
0.21875 0.59375 0
0.25 0.59375 0
0.1875 0.59375 0
0.21875 0.59375 0
0.1875 0.625 0
0.21875 0.625 0
0.21875 0.59375 0
0.25 0.59375 0
0.21875 0.625 0
0.25 0.625 0
0 0.625 0
0.03125 0.625 0
0 0.65625 0
0.03125 0.65625 0
0.03125 0.625 0
0.0625 0.625 0
0.03125 0.65625 0
0.0625 0.65625 0
0 0.65625 0
0.03125 0.65625 0
0 0.6875 0
0.03125 0.6875 0
0.03125 0.65625 0
0.0625 0.65625 0
0.03125 0.6875 0
0.0625 0.6875 0
0.0625 0.625 0
0.09375 0.625 0
0.0625 0.65625 0
0.09375 0.65625 0
0.09375 0.625 0
0.125 0.625 0
0.09375 0.65625 0
0.125 0.65625 0
0.0625 0.65625 0
0.09375 0.65625 0
0.0625 0.6875 0
0.09375 0.6875 0
0.09375 0.65625 0
0.125 0.65625 0
0.09375 0.6875 0
0.125 0.6875 0
0 0.6875 0
0.03125 0.6875 0
0 0.71875 0
0.03125 0.71875 0
0.03125 0.6875 0
0.0625 0.6875 0
0.03125 0.71875 0
0.0625 0.71875 0
0 0.71875 0
0.03125 0.71875 0
0 0.75 0
0.03125 0.75 0
0.03125 0.71875 0
0.0625 0.71875 0
0.03125 0.75 0
0.0625 0.75 0
0.0625 0.6875 0
0.09375 0.6875 0
0.0625 0.71875 0
0.09375 0.71875 0
0.09375 0.6875 0
0.125 0.6875 0
0.09375 0.71875 0
0.125 0.71875 0
0.0625 0.71875 0
0.09375 0.71875 0
0.0625 0.75 0
0.09375 0.75 0
0.09375 0.71875 0
0.125 0.71875 0
0.09375 0.75 0
0.125 0.75 0
0.125 0.625 0
0.15625 0.625 0
0.125 0.65625 0
0.15625 0.65625 0
0.15625 0.625 0
0.1875 0.625 0
0.15625 0.65625 0
0.1875 0.65625 0
0.125 0.65625 0
0.15625 0.65625 0
0.125 0.6875 0
0.15625 0.6875 0
0.15625 0.65625 0
0.1875 0.65625 0
0.15625 0.6875 0
0.1875 0.6875 0
0.1875 0.625 0
0.21875 0.625 0
0.1875 0.65625 0
0.21875 0.65625 0
0.21875 0.625 0
0.25 0.625 0
0.21875 0.65625 0
0.25 0.65625 0
0.1875 0.65625 0
0.21875 0.65625 0
0.1875 0.6875 0
0.21875 0.6875 0
0.21875 0.65625 0
0.25 0.65625 0
0.21875 0.6875 0
0.25 0.6875 0
0.125 0.6875 0
0.15625 0.6875 0
0.125 0.71875 0
0.15625 0.71875 0
0.15625 0.6875 0
0.1875 0.6875 0
0.15625 0.71875 0
0.1875 0.71875 0
0.125 0.71875 0
0.15625 0.71875 0
0.125 0.75 0
0.15625 0.75 0
0.15625 0.71875 0
0.1875 0.71875 0
0.15625 0.75 0
0.1875 0.75 0
0.1875 0.6875 0
0.21875 0.6875 0
0.1875 0.71875 0
0.21875 0.71875 0
0.21875 0.6875 0
0.25 0.6875 0
0.21875 0.71875 0
0.25 0.71875 0
0.1875 0.71875 0
0.21875 0.71875 0
0.1875 0.75 0
0.21875 0.75 0
0.21875 0.71875 0
0.25 0.71875 0
0.21875 0.75 0
0.25 0.75 0
0.25 0.5 0
0.28125 0.5 0
0.25 0.53125 0
0.28125 0.53125 0
0.28125 0.5 0
0.3125 0.5 0
0.28125 0.53125 0
0.3125 0.53125 0
0.25 0.53125 0
0.28125 0.53125 0
0.25 0.5625 0
0.28125 0.5625 0
0.28125 0.53125 0
0.3125 0.53125 0
0.28125 0.5625 0
0.3125 0.5625 0
0.3125 0.5 0
0.34375 0.5 0
0.3125 0.53125 0
0.34375 0.53125 0
0.34375 0.5 0
0.375 0.5 0
0.34375 0.53125 0
0.375 0.53125 0
0.3125 0.53125 0
0.34375 0.53125 0
0.3125 0.5625 0
0.34375 0.5625 0
0.34375 0.53125 0
0.375 0.53125 0
0.34375 0.5625 0
0.375 0.5625 0
0.25 0.5625 0
0.28125 0.5625 0
0.25 0.59375 0
0.28125 0.59375 0
0.28125 0.5625 0
0.3125 0.5625 0
0.28125 0.59375 0
0.3125 0.59375 0
0.25 0.59375 0
0.28125 0.59375 0
0.25 0.625 0
0.28125 0.625 0
0.28125 0.59375 0
0.3125 0.59375 0
0.28125 0.625 0
0.3125 0.625 0
0.3125 0.5625 0
0.34375 0.5625 0
0.3125 0.59375 0
0.34375 0.59375 0
0.34375 0.5625 0
0.375 0.5625 0
0.34375 0.59375 0
0.375 0.59375 0
0.3125 0.59375 0
0.34375 0.59375 0
0.3125 0.625 0
0.34375 0.625 0
0.34375 0.59375 0
0.375 0.59375 0
0.34375 0.625 0
0.375 0.625 0
0.375 0.5 0
0.40625 0.5 0
0.375 0.53125 0
0.40625 0.53125 0
0.40625 0.5 0
0.4375 0.5 0
0.40625 0.53125 0
0.4375 0.53125 0
0.375 0.53125 0
0.40625 0.53125 0
0.375 0.5625 0
0.40625 0.5625 0
0.40625 0.53125 0
0.4375 0.53125 0
0.40625 0.5625 0
0.4375 0.5625 0
0.4375 0.5 0
0.46875 0.5 0
0.4375 0.53125 0
0.46875 0.53125 0
0.46875 0.5 0
0.5 0.5 0
0.46875 0.53125 0
0.5 0.53125 0
0.4375 0.53125 0
0.46875 0.53125 0
0.4375 0.5625 0
0.46875 0.5625 0
0.46875 0.53125 0
0.5 0.53125 0
0.46875 0.5625 0
0.5 0.5625 0
0.375 0.5625 0
0.40625 0.5625 0
0.375 0.59375 0
0.40625 0.59375 0
0.40625 0.5625 0
0.4375 0.5625 0
0.40625 0.59375 0
0.4375 0.59375 0
0.375 0.59375 0
0.40625 0.59375 0
0.375 0.625 0
0.40625 0.625 0
0.40625 0.59375 0
0.4375 0.59375 0
0.40625 0.625 0
0.4375 0.625 0
0.4375 0.5625 0
0.46875 0.5625 0
0.4375 0.59375 0
0.46875 0.59375 0
0.46875 0.5625 0
0.5 0.5625 0
0.46875 0.59375 0
0.5 0.59375 0
0.4375 0.59375 0
0.46875 0.59375 0
0.4375 0.625 0
0.46875 0.625 0
0.46875 0.59375 0
0.5 0.59375 0
0.46875 0.625 0
0.5 0.625 0
0.25 0.625 0
0.28125 0.625 0
0.25 0.65625 0
0.28125 0.65625 0
0.28125 0.625 0
0.3125 0.625 0
0.28125 0.65625 0
0.3125 0.65625 0
0.25 0.65625 0
0.28125 0.65625 0
0.25 0.6875 0
0.28125 0.6875 0
0.28125 0.65625 0
0.3125 0.65625 0
0.28125 0.6875 0
0.3125 0.6875 0
0.3125 0.625 0
0.34375 0.625 0
0.3125 0.65625 0
0.34375 0.65625 0
0.34375 0.625 0
0.375 0.625 0
0.34375 0.65625 0
0.375 0.65625 0
0.3125 0.65625 0
0.34375 0.65625 0
0.3125 0.6875 0
0.34375 0.6875 0
0.34375 0.65625 0
0.375 0.65625 0
0.34375 0.6875 0
0.375 0.6875 0
0.25 0.6875 0
0.28125 0.6875 0
0.25 0.71875 0
0.28125 0.71875 0
0.28125 0.6875 0
0.3125 0.6875 0
0.28125 0.71875 0
0.3125 0.71875 0
0.25 0.71875 0
0.28125 0.71875 0
0.25 0.75 0
0.28125 0.75 0
0.28125 0.71875 0
0.3125 0.71875 0
0.28125 0.75 0
0.3125 0.75 0
0.3125 0.6875 0
0.34375 0.6875 0
0.3125 0.71875 0
0.34375 0.71875 0
0.34375 0.6875 0
0.375 0.6875 0
0.34375 0.71875 0
0.375 0.71875 0
0.3125 0.71875 0
0.34375 0.71875 0
0.3125 0.75 0
0.34375 0.75 0
0.34375 0.71875 0
0.375 0.71875 0
0.34375 0.75 0
0.375 0.75 0
0.375 0.625 0
0.40625 0.625 0
0.375 0.65625 0
0.40625 0.65625 0
0.40625 0.625 0
0.4375 0.625 0
0.40625 0.65625 0
0.4375 0.65625 0
0.375 0.65625 0
0.40625 0.65625 0
0.375 0.6875 0
0.40625 0.6875 0
0.40625 0.65625 0
0.4375 0.65625 0
0.40625 0.6875 0
0.4375 0.6875 0
0.4375 0.625 0
0.46875 0.625 0
0.4375 0.65625 0
0.46875 0.65625 0
0.46875 0.625 0
0.5 0.625 0
0.46875 0.65625 0
0.5 0.65625 0
0.4375 0.65625 0
0.46875 0.65625 0
0.4375 0.6875 0
0.46875 0.6875 0
0.46875 0.65625 0
0.5 0.65625 0
0.46875 0.6875 0
0.5 0.6875 0
0.375 0.6875 0
0.40625 0.6875 0
0.375 0.71875 0
0.40625 0.71875 0
0.40625 0.6875 0
0.4375 0.6875 0
0.40625 0.71875 0
0.4375 0.71875 0
0.375 0.71875 0
0.40625 0.71875 0
0.375 0.75 0
0.40625 0.75 0
0.40625 0.71875 0
0.4375 0.71875 0
0.40625 0.75 0
0.4375 0.75 0
0.4375 0.6875 0
0.46875 0.6875 0
0.4375 0.71875 0
0.46875 0.71875 0
0.46875 0.6875 0
0.5 0.6875 0
0.46875 0.71875 0
0.5 0.71875 0
0.4375 0.71875 0
0.46875 0.71875 0
0.4375 0.75 0
0.46875 0.75 0
0.46875 0.71875 0
0.5 0.71875 0
0.46875 0.75 0
0.5 0.75 0
0 0.75 0
0.03125 0.75 0
0 0.78125 0
0.03125 0.78125 0
0.03125 0.75 0
0.0625 0.75 0
0.03125 0.78125 0
0.0625 0.78125 0
0 0.78125 0
0.03125 0.78125 0
0 0.8125 0
0.03125 0.8125 0
0.03125 0.78125 0
0.0625 0.78125 0
0.03125 0.8125 0
0.0625 0.8125 0
0.0625 0.75 0
0.09375 0.75 0
0.0625 0.78125 0
0.09375 0.78125 0
0.09375 0.75 0
0.125 0.75 0
0.09375 0.78125 0
0.125 0.78125 0
0.0625 0.78125 0
0.09375 0.78125 0
0.0625 0.8125 0
0.09375 0.8125 0
0.09375 0.78125 0
0.125 0.78125 0
0.09375 0.8125 0
0.125 0.8125 0
0 0.8125 0
0.03125 0.8125 0
0 0.84375 0
0.03125 0.84375 0
0.03125 0.8125 0
0.0625 0.8125 0
0.03125 0.84375 0
0.0625 0.84375 0
0 0.84375 0
0.03125 0.84375 0
0 0.875 0
0.03125 0.875 0
0.03125 0.84375 0
0.0625 0.84375 0
0.03125 0.875 0
0.0625 0.875 0
0.0625 0.8125 0
0.09375 0.8125 0
0.0625 0.84375 0
0.09375 0.84375 0
0.09375 0.8125 0
0.125 0.8125 0
0.09375 0.84375 0
0.125 0.84375 0
0.0625 0.84375 0
0.09375 0.84375 0
0.0625 0.875 0
0.09375 0.875 0
0.09375 0.84375 0
0.125 0.84375 0
0.09375 0.875 0
0.125 0.875 0
0.125 0.75 0
0.15625 0.75 0
0.125 0.78125 0
0.15625 0.78125 0
0.15625 0.75 0
0.1875 0.75 0
0.15625 0.78125 0
0.1875 0.78125 0
0.125 0.78125 0
0.15625 0.78125 0
0.125 0.8125 0
0.15625 0.8125 0
0.15625 0.78125 0
0.1875 0.78125 0
0.15625 0.8125 0
0.1875 0.8125 0
0.1875 0.75 0
0.21875 0.75 0
0.1875 0.78125 0
0.21875 0.78125 0
0.21875 0.75 0
0.25 0.75 0
0.21875 0.78125 0
0.25 0.78125 0
0.1875 0.78125 0
0.21875 0.78125 0
0.1875 0.8125 0
0.21875 0.8125 0
0.21875 0.78125 0
0.25 0.78125 0
0.21875 0.8125 0
0.25 0.8125 0
0.125 0.8125 0
0.15625 0.8125 0
0.125 0.84375 0
0.15625 0.84375 0
0.15625 0.8125 0
[...]
POINT_DATA 4096
SCALARS x_dis double 1
LOOKUP_TABLE default
-9.5091e-12 -9.5091e-12 3.76562e-11 3.76562e-11 -9.5091e-12 -9.50911e-12 3.76562e-11 3.76563e-11 3.76562e-11 3.76562e-11 -1.09351e-10 -1.09351e-10 3.76562e-11 3.76563e-11 -1.09351e-10 -1.09351e-10 -9.50911e-12 -9.50911e-12 3.76563e-11 3.76563e-11 -9.50911e-12 -9.50911e-12 3.76563e-11 3.76563e-11 3.76563e-11 3.76563e-11 -1.09351e-10 -1.0935e-10 3.76563e-11 3.76563e-11 -1.0935e-10 -1.0935e-10 -1.09351e-10 -1.09351e-10 1.92318e-10 1.92318e-10 -1.09351e-10 -1.09351e-10 1.92318e-10 1.92318e-10 1.92318e-10 1.92318e-10 1.68156e-10 1.68156e-10 1.92318e-10 1.92318e-10 1.68156e-10 1.68157e-10 -1.09351e-10 -1.0935e-10 1.92318e-10 1.92318e-10 -1.0935e-10 -1.0935e-10 1.92318e-10 1.92318e-10 1.92318e-10 1.92318e-10 1.68157e-10 1.68158e-10 1.92318e-10 1.92318e-10 1.68158e-10 1.68159e-10 -9.50911e-12 -9.50911e-12 3.76563e-11 3.76563e-11 -9.50911e-12 -9.50911e-12 3.76563e-11 3.76563e-11 3.76563e-11 3.76563e-11 -1.0935e-10 -1.09351e-10 3.76563e-11 3.76563e-11 -1.09351e-10 -1.09351e-10 -9.50911e-12 -9.50911e-12 3.76563e-11 3.76563e-11 -9.50911e-12 -9.50911e-12 3.76563e-11 3.76563e-11 3.76563e-11 3.76563e-11 -1.09351e-10 -1.09351e-10 3.76563e-11 3.76563e-11 -1.09351e-10 -1.09351e-10 -1.0935e-10 -1.09351e-10 1.92318e-10 1.92318e-10 -1.09351e-10 -1.09351e-10 1.92318e-10 1.92318e-10 1.92318e-10 1.92318e-10 1.68159e-10 1.68158e-10 1.92318e-10 1.92318e-10 1.68158e-10 1.68158e-10 -1.09351e-10 -1.09351e-10 1.92318e-10 1.92318e-10 -1.09351e-10 -1.09351e-10 1.92318e-10 1.92318e-10 1.92318e-10 1.92318e-10 1.68158e-10 1.68158e-10 1.92318e-10 1.92318e-10 1.68158e-10 1.68158e-10 1.68156e-10 1.68156e-10 -3.05692e-09 -3.05692e-09 1.68156e-10 1.68157e-10 -3.05692e-09 -3.05692e-09 -3.05692e-09 -3.05692e-09 1.40763e-08 1.40763e-08 -3.05692e-09 -3.05692e-09 1.40763e-08 1.40763e-08 1.68157e-10 1.68158e-10 -3.05692e-09 -3.05692e-09 1.68158e-10 1.68159e-10 -3.05692e-09 -3.05692e-09 -3.05692e-09 -3.05692e-09 1.40763e-08 1.40763e-08 -3.05692e-09 -3.05692e-09 1.40763e-08 1.40763e-08 1.40763e-08 1.40763e-08 -3.70742e-08 -3.70742e-08 1.40763e-08 1.40763e-08 -3.70742e-08 -3.70742e-08 -3.70742e-08 -3.70742e-08 2.53395e-08 2.53397e-08 -3.70742e-08 -3.70742e-08 2.53397e-08 2.534e-08 1.40763e-08 1.40763e-08 -3.70742e-08 -3.70741e-08 1.40763e-08 1.40763e-08 -3.70741e-08 -3.70741e-08 -3.70742e-08 -3.70741e-08 2.534e-08 2.534e-08 -3.70741e-08 -3.70741e-08 2.534e-08 2.534e-08 1.68159e-10 1.68158e-10 -3.05692e-09 -3.05692e-09 1.68158e-10 1.68158e-10 -3.05692e-09 -3.05692e-09 -3.05692e-09 -3.05692e-09 1.40763e-08 1.40763e-08 -3.05692e-09 -3.05692e-09 1.40763e-08 1.40763e-08 1.68158e-10 1.68158e-10 -3.05692e-09 -3.05692e-09 1.68158e-10 1.68158e-10 -3.05692e-09 -3.05692e-09 -3.05692e-09 -3.05692e-09 1.40763e-08 1.40763e-08 -3.05692e-09 -3.05692e-09 1.40763e-08 1.40763e-08 1.40763e-08 1.40763e-08 -3.70741e-08 -3.70741e-08 1.40763e-08 1.40763e-08 -3.70741e-08 -3.70741e-08 -3.70741e-08 -3.70741e-08 2.534e-08 2.534e-08 -3.70741e-08 -3.70741e-08 2.534e-08 2.534e-08 1.40763e-08 1.40763e-08 -3.70741e-08 -3.70741e-08 1.40763e-08 1.40763e-08 -3.70741e-08 -3.70741e-08 -3.70741e-08 -3.70741e-08 2.534e-08 2.534e-08 -3.70741e-08 -3.70741e-08 2.534e-08 2.534e-08 -9.50911e-12 -9.50911e-12 3.76563e-11 3.76563e-11 -9.50911e-12 -9.50911e-12 3.76563e-11 3.76562e-11 3.76563e-11 3.76563e-11 -1.09351e-10 -1.0935e-10 3.76563e-11 3.76562e-11 -1.0935e-10 -1.09351e-10 -9.50911e-12 -9.50913e-12 3.76562e-11 3.76561e-11 -9.50913e-12 -9.50909e-12 3.76561e-11 3.7658e-11 3.76562e-11 3.76561e-11 -1.09351e-10 -1.0935e-10 3.76561e-11 3.7658e-11 -1.0935e-10 -1.0935e-10 -1.09351e-10 -1.0935e-10 1.92318e-10 1.92318e-10 -1.0935e-10 -1.09351e-10 1.92318e-10 1.92318e-10 1.92318e-10 1.92318e-10 1.68158e-10 1.68158e-10 1.92318e-10 1.92318e-10 1.68158e-10 1.68158e-10 -1.09351e-10 -1.0935e-10 1.92318e-10 1.92318e-10 -1.0935e-10 -1.0935e-10 1.92318e-10 1.92318e-10 1.92318e-10 1.92318e-10 1.68158e-10 1.68158e-10 1.92318e-10 1.92318e-10 1.68158e-10 1.68158e-10 -9.50909e-12 -9.50908e-12 3.7658e-11 3.76523e-11 -9.50908e-12 -9.50939e-12 3.76523e-11 3.76464e-11 3.7658e-11 3.76523e-11 -1.0935e-10 -1.09354e-10 3.76523e-11 3.76464e-11 -1.09354e-10 -1.09337e-10 -9.50939e-12 -9.50857e-12 3.76464e-11 3.77414e-11 -9.50857e-12 -9.50824e-12 3.77414e-11 3.76011e-11 3.76464e-11 3.77414e-11 -1.09337e-10 -1.09385e-10 3.77414e-11 3.76011e-11 -1.09385e-10 -1.09268e-10 -1.0935e-10 -1.09354e-10 1.92318e-10 1.92318e-10 -1.09354e-10 -1.09337e-10 1.92318e-10 1.9231e-10 1.92318e-10 1.92318e-10 1.68158e-10 1.68159e-10 1.92318e-10 1.9231e-10 1.68159e-10 1.6816e-10 -1.09337e-10 -1.09385e-10 1.9231e-10 1.92343e-10 -1.09385e-10 -1.09268e-10 1.92343e-10 1.92284e-10 1.9231e-10 1.92343e-10 1.6816e-10 1.68146e-10 1.92343e-10 1.92284e-10 1.68146e-10 1.68169e-10 1.68158e-10 1.68158e-10 -3.05692e-09 -3.05692e-09 1.68158e-10 1.68158e-10 -3.05692e-09 -3.05692e-09 -3.05692e-09 -3.05692e-09 1.40763e-08 1.40763e-08 -3.05692e-09 -3.05692e-09 1.40763e-08 1.40763e-08 1.68158e-10 1.68158e-10 -3.05692e-09 -3.05692e-09 1.68158e-10 1.68158e-10 -3.05692e-09 -3.05692e-09 -3.05692e-09 -3.05692e-09 1.40763e-08 1.40763e-08 -3.05692e-09 -3.05692e-09 1.40763e-08 1.40763e-08 1.40763e-08 1.40763e-08 -3.70741e-08 -3.70741e-08 1.40763e-08 1.40763e-08 -3.70741e-08 -3.70741e-08 -3.70741e-08 -3.70741e-08 2.534e-08 2.534e-08 -3.70741e-08 -3.70741e-08 2.534e-08 2.534e-08 1.40763e-08 1.40763e-08 -3.70741e-08 -3.70741e-08 1.40763e-08 1.40763e-08 -3.70741e-08 -3.70741e-08 -3.70741e-08 -3.70741e-08 2.534e-08 2.534e-08 -3.70741e-08 -3.70741e-08 2.534e-08 2.534e-08 1.68158e-10 1.68159e-10 -3.05692e-09 -3.05692e-09 1.68159e-10 1.6816e-10 -3.05692e-09 -3.05692e-09 -3.05692e-09 -3.05692e-09 1.40763e-08 1.40763e-08 -3.05692e-09 -3.05692e-09 1.40763e-08 1.40763e-08 1.6816e-10 1.68146e-10 -3.05692e-09 -3.05692e-09 1.68146e-10 1.68169e-10 -3.05692e-09 -3.05693e-09 -3.05692e-09 -3.05692e-09 1.40763e-08 1.40763e-08 -3.05692e-09 -3.05693e-09 1.40763e-08 1.40763e-08 1.40763e-08 1.40763e-08 -3.70741e-08 -3.70741e-08 1.40763e-08 1.40763e-08 -3.70741e-08 -3.70741e-08 -3.70741e-08 -3.70741e-08 2.534e-08 2.534e-08 -3.70741e-08 -3.70741e-08 2.534e-08 2.534e-08 1.40763e-08 1.40763e-08 -3.70741e-08 -3.70741e-08 1.40763e-08 1.40763e-08 -3.70741e-08 -3.70741e-08 -3.70741e-08 -3.70741e-08 2.534e-08 2.534e-08 -3.70741e-08 -3.70741e-08 2.534e-08 2.534e-08 2.53395e-08 2.53397e-08 2.71779e-07 2.71779e-07 2.53397e-08 2.534e-08 2.71779e-07 2.71778e-07 2.71779e-07 2.71779e-07 -1.30479e-06 -1.30479e-06 2.71779e-07 2.71778e-07 -1.30479e-06 -1.3048e-06 2.534e-08 2.534e-08 2.71778e-07 2.71777e-07 2.534e-08 2.534e-08 2.71777e-07 2.71776e-07 2.71778e-07 2.71777e-07 -1.3048e-06 -1.3048e-06 2.71777e-07 2.71776e-07 -1.3048e-06 -1.3048e-06 -1.30479e-06 -1.30479e-06 1.59537e-06 1.59539e-06 -1.30479e-06 -1.3048e-06 1.59539e-06 1.59541e-06 1.59537e-06 1.59539e-06 8.63909e-06 8.6392e-06 1.59539e-06 1.59541e-06 8.6392e-06 8.63945e-06 -1.3048e-06 -1.3048e-06 1.59541e-06 1.59544e-06 -1.3048e-06 -1.3048e-06 1.59544e-06 1.59545e-06 1.59541e-06 1.59544e-06 8.63945e-06 8.63962e-06 1.59544e-06 1.59545e-06 8.63962e-06 8.63969e-06 2.534e-08 2.534e-08 2.71776e-07 2.71776e-07 2.534e-08 2.534e-08 2.71776e-07 2.71776e-07 2.71776e-07 2.71776e-07 -1.3048e-06 -1.3048e-06 2.71776e-07 2.71776e-07 -1.3048e-06 -1.3048e-06 2.534e-08 2.534e-08 2.71776e-07 2.71776e-07 2.534e-08 2.534e-08 2.71776e-07 2.71776e-07 2.71776e-07 2.71776e-07 -1.3048e-06 -1.3048e-06 2.71776e-07 2.71776e-07 -1.3048e-06 -1.3048e-06 -1.3048e-06 -1.3048e-06 1.59545e-06 1.59546e-06 -1.3048e-06 -1.3048e-06 1.59546e-06 1.59546e-06 1.59545e-06 1.59546e-06 8.63969e-06 8.63971e-06 1.59546e-06 1.59546e-06 8.63971e-06 8.63971e-06 -1.3048e-06 -1.3048e-06 1.59546e-06 1.59546e-06 -1.3048e-06 -1.3048e-06 1.59546e-06 1.59546e-06 1.59546e-06 1.59546e-06 8.63971e-06 8.63971e-06 1.59546e-06 1.59546e-06 8.63971e-06 8.63971e-06 8.63909e-06 8.6392e-06 -2.51103e-05 -2.51098e-05 8.6392e-06 8.63945e-06 -2.51098e-05 -2.51091e-05 -2.51103e-05 -2.51098e-05 -0.000113737 -0.000113735 -2.51098e-05 -2.51091e-05 -0.000113735 -0.000113734 8.63945e-06 8.63962e-06 -2.51091e-05 -2.51085e-05 8.63962e-06 8.63969e-06 -2.51085e-05 -2.51083e-05 -2.51091e-05 -2.51085e-05 -0.000113734 -0.000113733 -2.51085e-05 -2.51083e-05 -0.000113733 -0.000113733 -0.000113737 -0.000113735 -0.000220101 -0.000220096 -0.000113735 -0.000113734 -0.000220096 -0.000220094 -0.000220101 -0.000220096 -0.00033 -0.00033 -0.000220096 -0.000220094 -0.00033 -0.00033 -0.000113734 -0.000113733 -0.000220094 -0.000220093 -0.000113733 -0.000113733 -0.000220093 -0.000220093 -0.000220094 -0.000220093 -0.00033 -0.00033 -0.000220093 -0.000220093 -0.00033 -0.00033 8.63969e-06 8.63971e-06 -2.51083e-05 -2.51083e-05 8.63971e-06 8.63971e-06 -2.51083e-05 -2.51083e-05 -2.51083e-05 -2.51083e-05 -0.000113733 -0.000113733 -2.51083e-05 -2.51083e-05 -0.000113733 -0.000113733 8.63971e-06 8.63971e-06 -2.51083e-05 -2.51083e-05 8.63971e-06 8.63971e-06 -2.51083e-05 -2.51083e-05 -2.51083e-05 -2.51083e-05 -0.000113733 -0.000113733 -2.51083e-05 -2.51083e-05 -0.000113733 -0.000113733 -0.000113733 -0.000113733 -0.000220093 -0.000220093 -0.000113733 -0.000113733 -0.000220093 -0.000220093 -0.000220093 -0.000220093 -0.00033 -0.00033 -0.000220093 -0.000220093 -0.00033 -0.00033 -0.000113733 -0.000113733 -0.000220093 -0.000220093 -0.000113733 -0.000113733 -0.000220093 -0.000220093 -0.000220093 -0.000220093 -0.00033 -0.00033 -0.000220093 -0.000220093 -0.00033 -0.00033 2.534e-08 2.534e-08 2.71776e-07 2.71776e-07 2.534e-08 2.534e-08 2.71776e-07 2.71776e-07 2.71776e-07 2.71776e-07 -1.3048e-06 -1.3048e-06 2.71776e-07 2.71776e-07 -1.3048e-06 -1.3048e-06 2.534e-08 2.534e-08 2.71776e-07 2.71776e-07 2.534e-08 2.534e-08 2.71776e-07 2.71776e-07 2.71776e-07 2.71776e-07 -1.3048e-06 -1.3048e-06 2.71776e-07 2.71776e-07 -1.3048e-06 -1.3048e-06 -1.3048e-06 -1.3048e-06 1.59546e-06 1.59546e-06 -1.3048e-06 -1.3048e-06 1.59546e-06 1.59546e-06 1.59546e-06 1.59546e-06 8.63971e-06 8.63971e-06 1.59546e-06 1.59546e-06 8.63971e-06 8.63971e-06 -1.3048e-06 -1.3048e-06 1.59546e-06 1.59546e-06 -1.3048e-06 -1.3048e-06 1.59546e-06 1.59546e-06 1.59546e-06 1.59546e-06 8.63971e-06 8.63971e-06 1.59546e-06 1.59546e-06 8.63971e-06 8.63971e-06 2.534e-08 2.534e-08 2.71776e-07 2.71776e-07 2.534e-08 2.534e-08 2.71776e-07 2.71776e-07 2.71776e-07 2.71776e-07 -1.3048e-06 -1.3048e-06 2.71776e-07 2.71776e-07 -1.3048e-06 -1.3048e-06 2.534e-08 2.534e-08 2.71776e-07 2.71776e-07 2.534e-08 2.534e-08 2.71776e-07 2.71776e-07 2.71776e-07 2.71776e-07 -1.3048e-06 -1.3048e-06 2.71776e-07 2.71776e-07 -1.3048e-06 -1.3048e-06 -1.3048e-06 -1.3048e-06 1.59546e-06 1.59546e-06 -1.3048e-06 -1.3048e-06 1.59546e-06 1.59546e-06 1.59546e-06 1.59546e-06 8.63971e-06 8.63971e-06 1.59546e-06 1.59546e-06 8.63971e-06 8.63971e-06 -1.3048e-06 -1.3048e-06 1.59546e-06 1.59546e-06 -1.3048e-06 -1.3048e-06 1.59546e-06 1.59546e-06 1.59546e-06 1.59546e-06 8.63971e-06 8.63971e-06 1.59546e-06 1.59546e-06 8.63971e-06 8.63971e-06 8.63971e-06 8.63971e-06 -2.51083e-05 -2.51083e-05 8.63971e-06 8.63971e-06 -2.51083e-05 -2.51083e-05 -2.51083e-05 -2.51083e-05 -0.000113733 -0.000113733 -2.51083e-05 -2.51083e-05 -0.000113733 -0.000113733 8.63971e-06 8.63971e-06 -2.51083e-05 -2.51083e-05 8.63971e-06 8.63971e-06 -2.51083e-05 -2.51083e-05 -2.51083e-05 -2.51083e-05 -0.000113733 -0.000113733 -2.51083e-05 -2.51083e-05 -0.000113733 -0.000113733 -0.000113733 -0.000113733 -0.000220093 -0.000220093 -0.000113733 -0.000113733 -0.000220093 -0.000220093 -0.000220093 -0.000220093 -0.00033 -0.00033 -0.000220093 -0.000220093 -0.00033 -0.00033 -0.000113733 -0.000113733 -0.000220093 -0.000220093 -0.000113733 -0.000113733 -0.000220093 -0.000220093 -0.000220093 -0.000220093 -0.00033 -0.00033 -0.000220093 -0.000220093 -0.00033 -0.00033 8.63971e-06 8.63971e-06 -2.51083e-05 -2.51083e-05 8.63971e-06 8.63971e-06 -2.51083e-05 -2.51083e-05 -2.51083e-05 -2.51083e-05 -0.000113733 -0.000113733 -2.51083e-05 -2.51083e-05 -0.000113733 -0.000113733 8.63971e-06 8.63971e-06 -2.51083e-05 -2.51083e-05 8.63971e-06 8.63971e-06 -2.51083e-05 -2.51083e-05 -2.51083e-05 -2.51083e-05 -0.000113733 -0.000113733 -2.51083e-05 -2.51083e-05 -0.000113733 -0.000113733 -0.000113733 -0.000113733 -0.000220093 -0.000220093 -0.000113733 -0.000113733 -0.000220093 -0.000220093 -0.000220093 -0.000220093 -0.00033 -0.00033 -0.000220093 -0.000220093 -0.00033 -0.00033 -0.000113733 -0.000113733 -0.000220093 -0.000220093 -0.000113733 -0.000113733 -0.000220093 -0.000220093 -0.000220093 -0.000220093 -0.00033 -0.00033 -0.000220093 -0.000220093 -0.00033 -0.00033 -9.50824e-12 -1.80376e-11 3.76011e-11 3.87614e-11 -1.80376e-11 -1.99413e-11 3.87614e-11 3.93e-11 3.76011e-11 3.87614e-11 -1.09268e-10 -1.09229e-10 3.87614e-11 3.93e-11 -1.09229e-10 -1.09349e-10 -1.99413e-11 -1.88843e-11 3.93e-11 3.92999e-11 -1.88843e-11 -1.89772e-11 3.92999e-11 3.92661e-11 3.93e-11 3.92999e-11 -1.09349e-10 -1.09399e-10 3.92999e-11 3.92661e-11 -1.09399e-10 -1.09363e-10 -1.09268e-10 -1.09229e-10 1.92284e-10 1.92154e-10 -1.09229e-10 -1.09349e-10 1.92154e-10 1.92167e-10 1.92284e-10 1.92154e-10 1.68169e-10 1.68232e-10 1.92154e-10 1.92167e-10 1.68232e-10 1.6824e-10 -1.09349e-10 -1.09399e-10 1.92167e-10 1.9221e-10 -1.09399e-10 -1.09363e-10 1.9221e-10 1.92193e-10 1.92167e-10 1.9221e-10 1.6824e-10 1.6822e-10 1.9221e-10 1.92193e-10 1.6822e-10 1.68222e-10 -1.89772e-11 -1.90412e-11 3.92661e-11 3.92618e-11 -1.90412e-11 -1.90144e-11 3.92618e-11 3.9268e-11 3.92661e-11 3.92618e-11 -1.09363e-10 -1.09369e-10 3.92618e-11 3.9268e-11 -1.09369e-10 -1.09372e-10 -1.90144e-11 -1.90176e-11 3.9268e-11 3.92667e-11 -1.90176e-11 -1.90187e-11 3.92667e-11 3.92664e-11 3.9268e-11 3.92667e-11 -1.09372e-10 -1.0937e-10 3.92667e-11 3.92664e-11 -1.0937e-10 -1.0937e-10 -1.09363e-10 -1.09369e-10 1.92193e-10 1.92192e-10 -1.09369e-10 -1.09372e-10 1.92192e-10 1.92194e-10 1.92193e-10 1.92192e-10 1.68222e-10 1.68225e-10 1.92192e-10 1.92194e-10 1.68225e-10 1.68224e-10 -1.09372e-10 -1.0937e-10 1.92194e-10 1.92194e-10 -1.0937e-10 -1.0937e-10 1.92194e-10 1.92194e-10 1.92194e-10 1.92194e-10 1.68224e-10 1.68224e-10 1.92194e-10 1.92194e-10 1.68224e-10 1.68224e-10 1.68169e-10 1.68232e-10 -3.05693e-09 -3.05694e-09 1.68232e-10 1.6824e-10 -3.05694e-09 -3.05695e-09 -3.05693e-09 -3.05694e-09 1.40763e-08 1.40763e-08 -3.05694e-09 -3.05695e-09 1.40763e-08 1.40763e-08 1.6824e-10 1.6822e-10 -3.05695e-09 -3.05695e-09 1.6822e-10 1.68222e-10 -3.05695e-09 -3.05694e-09 -3.05695e-09 -3.05695e-09 1.40763e-08 1.40763e-08 -3.05695e-09 -3.05694e-09 1.40763e-08 1.40763e-08 1.40763e-08 1.40763e-08 -3.70741e-08 -3.70741e-08 1.40763e-08 1.40763e-08 -3.70741e-08 -3.70741e-08 -3.70741e-08 -3.70741e-08 2.534e-08 2.534e-08 -3.70741e-08 -3.70741e-08 2.534e-08 2.534e-08 1.40763e-08 1.40763e-08 -3.70741e-08 -3.70741e-08 1.40763e-08 1.40763e-08 -3.70741e-08 -3.70741e-08 -3.70741e-08 -3.70741e-08 2.534e-08 2.534e-08 -3.70741e-08 -3.70741e-08 2.534e-08 2.534e-08 1.68222e-10 1.68225e-10 -3.05694e-09 -3.05695e-09 1.68225e-10 1.68224e-10 -3.05695e-09 -3.05695e-09 -3.05694e-09 -3.05695e-09 1.40763e-08 1.40763e-08 -3.05695e-09 -3.05695e-09 1.40763e-08 1.40763e-08 1.68224e-10 1.68224e-10 -3.05695e-09 -3.05694e-09 1.68224e-10 1.68224e-10 -3.05694e-09 -3.05695e-09 -3.05695e-09 -3.05694e-09 1.40763e-08 1.40763e-08 -3.05694e-09 -3.05695e-09 1.40763e-08 1.40763e-08 1.40763e-08 1.40763e-08 -3.70741e-08 -3.70741e-08 1.40763e-08 1.40763e-08 -3.70741e-08 -3.70741e-08 -3.70741e-08 -3.70741e-08 2.534e-08 2.534e-08 -3.70741e-08 -3.70741e-08 2.534e-08 2.534e-08 1.40763e-08 1.40763e-08 -3.70741e-08 -3.70741e-08 1.40763e-08 1.40763e-08 -3.70741e-08 -3.70741e-08 -3.70741e-08 -3.70741e-08 2.534e-08 2.534e-08 -3.70741e-08 -3.70741e-08 2.534e-08 2.534e-08 -1.90187e-11 -1.90181e-11 3.92664e-11 3.92667e-11 -1.90181e-11 -1.90182e-11 3.92667e-11 3.92666e-11 3.92664e-11 3.92667e-11 -1.0937e-10 -1.0937e-10 3.92667e-11 3.92666e-11 -1.0937e-10 -1.0937e-10 -1.90182e-11 -1.90182e-11 3.92666e-11 3.92666e-11 -1.90182e-11 -1.90182e-11 3.92666e-11 3.92666e-11 3.92666e-11 3.92666e-11 -1.0937e-10 -1.0937e-10 3.92666e-11 3.92666e-11 -1.0937e-10 -1.0937e-10 -1.0937e-10 -1.0937e-10 1.92194e-10 1.92194e-10 -1.0937e-10 -1.0937e-10 1.92194e-10 1.92194e-10 1.92194e-10 1.92194e-10 1.68224e-10 1.68224e-10 1.92194e-10 1.92194e-10 1.68224e-10 1.68224e-10 -1.0937e-10 -1.0937e-10 1.92194e-10 1.92194e-10 -1.0937e-10 -1.0937e-10 1.92194e-10 1.92194e-10 1.92194e-10 1.92194e-10 1.68224e-10 1.68224e-10 1.92194e-10 1.92194e-10 1.68224e-10 1.68224e-10 -1.90182e-11 -1.90182e-11 3.92666e-11 3.92666e-11 -1.90182e-11 -1.90182e-11 3.92666e-11 3.92666e-11 3.92666e-11 3.92666e-11 -1.0937e-10 -1.0937e-10 3.92666e-11 3.92666e-11 -1.0937e-10 -1.0937e-10 -1.90182e-11 -1.90182e-11 3.92666e-11 3.92666e-11 -1.90182e-11 -1.90182e-11 3.92666e-11 3.92667e-11 3.92666e-11 3.92666e-11 -1.0937e-10 -1.0937e-10 3.92666e-11 3.92667e-11 -1.0937e-10 -1.0937e-10 -1.0937e-10 -1.0937e-10 1.92194e-10 1.92194e-10 -1.0937e-10 -1.0937e-10 1.92194e-10 1.92193e-10 1.92194e-10 1.92194e-10 1.68224e-10 1.68224e-10 1.92194e-10 1.92193e-10 1.68224e-10 1.68226e-10 -1.0937e-10 -1.0937e-10 1.92193e-10 1.92193e-10 -1.0937e-10 -1.0937e-10 1.92193e-10 1.92193e-10 1.92193e-10 1.92193e-10 1.68226e-10 1.68227e-10 1.92193e-10 1.92193e-10 1.68227e-10 1.68227e-10 1.68224e-10 1.68224e-10 -3.05695e-09 -3.05694e-09 1.68224e-10 1.68224e-10 -3.05694e-09 -3.05694e-09 -3.05695e-09 -3.05694e-09 1.40763e-08 1.40763e-08 -3.05694e-09 -3.05694e-09 1.40763e-08 1.40763e-08 1.68224e-10 1.68224e-10 -3.05694e-09 -3.05695e-09 1.68224e-10 1.68224e-10 -3.05695e-09 -3.05695e-09 -3.05694e-09 -3.05695e-09 1.40763e-08 1.40763e-08 -3.05695e-09 -3.05695e-09 1.40763e-08 1.40763e-08 1.40763e-08 1.40763e-08 -3.70741e-08 -3.70741e-08 1.40763e-08 1.40763e-08 -3.70741e-08 -3.70741e-08 -3.70741e-08 -3.70741e-08 2.534e-08 2.534e-08 -3.70741e-08 -3.70741e-08 2.534e-08 2.534e-08 1.40763e-08 1.40763e-08 -3.70741e-08 -3.70741e-08 1.40763e-08 1.40763e-08 -3.70741e-08 -3.70741e-08 -3.70741e-08 -3.70741e-08 2.534e-08 2.534e-08 -3.70741e-08 -3.70741e-08 2.534e-08 2.534e-08 1.68224e-10 1.68224e-10 -3.05695e-09 -3.05695e-09 1.68224e-10 1.68226e-10 -3.05695e-09 -3.05695e-09 -3.05695e-09 -3.05695e-09 1.40763e-08 1.40763e-08 -3.05695e-09 -3.05695e-09 1.40763e-08 1.40762e-08 1.68226e-10 1.68227e-10 -3.05695e-09 -3.05695e-09 1.68227e-10 1.68227e-10 -3.05695e-09 -3.05695e-09 -3.05695e-09 -3.05695e-09 1.40762e-08 1.40762e-08 -3.05695e-09 -3.05695e-09 1.40762e-08 1.40762e-08 1.40763e-08 1.40763e-08 -3.70741e-08 -3.7074e-08 1.40763e-08 1.40762e-08 -3.7074e-08 -3.7074e-08 -3.70741e-08 -3.7074e-08 2.534e-08 2.534e-08 -3.7074e-08 -3.7074e-08 2.534e-08 2.53401e-08 1.40762e-08 1.40762e-08 -3.7074e-08 -3.70739e-08 1.40762e-08 1.40762e-08 -3.70739e-08 -3.70739e-08 -3.7074e-08 -3.70739e-08 2.53401e-08 2.53403e-08 -3.70739e-08 -3.70739e-08 2.53403e-08 2.53405e-08 2.534e-08 2.534e-08 2.71776e-07 2.71776e-07 2.534e-08 2.534e-08 2.71776e-07 2.71776e-07 2.71776e-07 2.71776e-07 -1.3048e-06 -1.3048e-06 2.71776e-07 2.71776e-07 -1.3048e-06 -1.3048e-06 2.534e-08 2.534e-08 2.71776e-07 2.71776e-07 2.534e-08 2.534e-08 2.71776e-07 2.71776e-07 2.71776e-07 2.71776e-07 -1.3048e-06 -1.3048e-06 2.71776e-07 2.71776e-07 -1.3048e-06 -1.3048e-06 -1.3048e-06 -1.3048e-06 1.59546e-06 1.59546e-06 -1.3048e-06 -1.3048e-06 1.59546e-06 1.59546e-06 1.59546e-06 1.59546e-06 8.63971e-06 8.63971e-06 1.59546e-06 1.59546e-06 8.63971e-06 8.63971e-06 -1.3048e-06 -1.3048e-06 1.59546e-06 1.59546e-06 -1.3048e-06 -1.3048e-06 1.59546e-06 1.59546e-06 1.59546e-06 1.59546e-06 8.63971e-06 8.63971e-06 1.59546e-06 1.59546e-06 8.63971e-06 8.63971e-06 2.534e-08 2.534e-08 2.71776e-07 2.71776e-07 2.534e-08 2.534e-08 2.71776e-07 2.71776e-07 2.71776e-07 2.71776e-07 -1.3048e-06 -1.3048e-06 2.71776e-07 2.71776e-07 -1.3048e-06 -1.3048e-06 2.534e-08 2.534e-08 2.71776e-07 2.71776e-07 2.534e-08 2.534e-08 2.71776e-07 2.71776e-07 2.71776e-07 2.71776e-07 -1.3048e-06 -1.3048e-06 2.71776e-07 2.71776e-07 -1.3048e-06 -1.3048e-06 -1.3048e-06 -1.3048e-06 1.59546e-06 1.59546e-06 -1.3048e-06 -1.3048e-06 1.59546e-06 1.59546e-06 1.59546e-06 1.59546e-06 8