# vtk DataFile Version 3.0
#This file was generated by the deal.II library on 2022/11/16 at 22:14:21
ASCII
DATASET UNSTRUCTURED_GRID

POINTS 4096 double
0 0.5 0
0.03125 0.5 0
0 0.53125 0
0.03125 0.53125 0
0.03125 0.5 0
0.0625 0.5 0
0.03125 0.53125 0
0.0625 0.53125 0
0 0.53125 0
0.03125 0.53125 0
0 0.5625 0
0.03125 0.5625 0
0.03125 0.53125 0
0.0625 0.53125 0
0.03125 0.5625 0
0.0625 0.5625 0
0.0625 0.5 0
0.09375 0.5 0
0.0625 0.53125 0
0.09375 0.53125 0
0.09375 0.5 0
0.125 0.5 0
0.09375 0.53125 0
0.125 0.53125 0
0.0625 0.53125 0
0.09375 0.53125 0
0.0625 0.5625 0
0.09375 0.5625 0
0.09375 0.53125 0
0.125 0.53125 0
0.09375 0.5625 0
0.125 0.5625 0
0 0.5625 0
0.03125 0.5625 0
0 0.59375 0
0.03125 0.59375 0
0.03125 0.5625 0
0.0625 0.5625 0
0.03125 0.59375 0
0.0625 0.59375 0
0 0.59375 0
0.03125 0.59375 0
0 0.625 0
0.03125 0.625 0
0.03125 0.59375 0
0.0625 0.59375 0
0.03125 0.625 0
0.0625 0.625 0
0.0625 0.5625 0
0.09375 0.5625 0
0.0625 0.59375 0
0.09375 0.59375 0
0.09375 0.5625 0
0.125 0.5625 0
0.09375 0.59375 0
0.125 0.59375 0
0.0625 0.59375 0
0.09375 0.59375 0
0.0625 0.625 0
0.09375 0.625 0
0.09375 0.59375 0
0.125 0.59375 0
0.09375 0.625 0
0.125 0.625 0
0.125 0.5 0
0.15625 0.5 0
0.125 0.53125 0
0.15625 0.53125 0
0.15625 0.5 0
0.1875 0.5 0
0.15625 0.53125 0
0.1875 0.53125 0
0.125 0.53125 0
0.15625 0.53125 0
0.125 0.5625 0
0.15625 0.5625 0
0.15625 0.53125 0
0.1875 0.53125 0
0.15625 0.5625 0
0.1875 0.5625 0
0.1875 0.5 0
0.21875 0.5 0
0.1875 0.53125 0
0.21875 0.53125 0
0.21875 0.5 0
0.25 0.5 0
0.21875 0.53125 0
0.25 0.53125 0
0.1875 0.53125 0
0.21875 0.53125 0
0.1875 0.5625 0
0.21875 0.5625 0
0.21875 0.53125 0
0.25 0.53125 0
0.21875 0.5625 0
0.25 0.5625 0
0.125 0.5625 0
0.15625 0.5625 0
0.125 0.59375 0
0.15625 0.59375 0
0.15625 0.5625 0
0.1875 0.5625 0
0.15625 0.59375 0
0.1875 0.59375 0
0.125 0.59375 0
0.15625 0.59375 0
0.125 0.625 0
0.15625 0.625 0
0.15625 0.59375 0
0.1875 0.59375 0
0.15625 0.625 0
0.1875 0.625 0
0.1875 0.5625 0
0.21875 0.5625 0
0.1875 0.59375 0
0.21875 0.59375 0
0.21875 0.5625 0
0.25 0.5625 0
0.21875 0.59375 0
0.25 0.59375 0
0.1875 0.59375 0
0.21875 0.59375 0
0.1875 0.625 0
0.21875 0.625 0
0.21875 0.59375 0
0.25 0.59375 0
0.21875 0.625 0
0.25 0.625 0
0 0.625 0
0.03125 0.625 0
0 0.65625 0
0.03125 0.65625 0
0.03125 0.625 0
0.0625 0.625 0
0.03125 0.65625 0
0.0625 0.65625 0
0 0.65625 0
0.03125 0.65625 0
0 0.6875 0
0.03125 0.6875 0
0.03125 0.65625 0
0.0625 0.65625 0
0.03125 0.6875 0
0.0625 0.6875 0
0.0625 0.625 0
0.09375 0.625 0
0.0625 0.65625 0
0.09375 0.65625 0
0.09375 0.625 0
0.125 0.625 0
0.09375 0.65625 0
0.125 0.65625 0
0.0625 0.65625 0
0.09375 0.65625 0
0.0625 0.6875 0
0.09375 0.6875 0
0.09375 0.65625 0
0.125 0.65625 0
0.09375 0.6875 0
0.125 0.6875 0
0 0.6875 0
0.03125 0.6875 0
0 0.71875 0
0.03125 0.71875 0
0.03125 0.6875 0
0.0625 0.6875 0
0.03125 0.71875 0
0.0625 0.71875 0
0 0.71875 0
0.03125 0.71875 0
0 0.75 0
0.03125 0.75 0
0.03125 0.71875 0
0.0625 0.71875 0
0.03125 0.75 0
0.0625 0.75 0
0.0625 0.6875 0
0.09375 0.6875 0
0.0625 0.71875 0
0.09375 0.71875 0
0.09375 0.6875 0
0.125 0.6875 0
0.09375 0.71875 0
0.125 0.71875 0
0.0625 0.71875 0
0.09375 0.71875 0
0.0625 0.75 0
0.09375 0.75 0
0.09375 0.71875 0
0.125 0.71875 0
0.09375 0.75 0
0.125 0.75 0
0.125 0.625 0
0.15625 0.625 0
0.125 0.65625 0
0.15625 0.65625 0
0.15625 0.625 0
0.1875 0.625 0
0.15625 0.65625 0
0.1875 0.65625 0
0.125 0.65625 0
0.15625 0.65625 0
0.125 0.6875 0
0.15625 0.6875 0
0.15625 0.65625 0
0.1875 0.65625 0
0.15625 0.6875 0
0.1875 0.6875 0
0.1875 0.625 0
0.21875 0.625 0
0.1875 0.65625 0
0.21875 0.65625 0
0.21875 0.625 0
0.25 0.625 0
0.21875 0.65625 0
0.25 0.65625 0
0.1875 0.65625 0
0.21875 0.65625 0
0.1875 0.6875 0
0.21875 0.6875 0
0.21875 0.65625 0
0.25 0.65625 0
0.21875 0.6875 0
0.25 0.6875 0
0.125 0.6875 0
0.15625 0.6875 0
0.125 0.71875 0
0.15625 0.71875 0
0.15625 0.6875 0
0.1875 0.6875 0
0.15625 0.71875 0
0.1875 0.71875 0
0.125 0.71875 0
0.15625 0.71875 0
0.125 0.75 0
0.15625 0.75 0
0.15625 0.71875 0
0.1875 0.71875 0
0.15625 0.75 0
0.1875 0.75 0
0.1875 0.6875 0
0.21875 0.6875 0
0.1875 0.71875 0
0.21875 0.71875 0
0.21875 0.6875 0
0.25 0.6875 0
0.21875 0.71875 0
0.25 0.71875 0
0.1875 0.71875 0
0.21875 0.71875 0
0.1875 0.75 0
0.21875 0.75 0
0.21875 0.71875 0
0.25 0.71875 0
0.21875 0.75 0
0.25 0.75 0
0.25 0.5 0
0.28125 0.5 0
0.25 0.53125 0
0.28125 0.53125 0
0.28125 0.5 0
0.3125 0.5 0
0.28125 0.53125 0
0.3125 0.53125 0
0.25 0.53125 0
0.28125 0.53125 0
0.25 0.5625 0
0.28125 0.5625 0
0.28125 0.53125 0
0.3125 0.53125 0
0.28125 0.5625 0
0.3125 0.5625 0
0.3125 0.5 0
0.34375 0.5 0
0.3125 0.53125 0
0.34375 0.53125 0
0.34375 0.5 0
0.375 0.5 0
0.34375 0.53125 0
0.375 0.53125 0
0.3125 0.53125 0
0.34375 0.53125 0
0.3125 0.5625 0
0.34375 0.5625 0
0.34375 0.53125 0
0.375 0.53125 0
0.34375 0.5625 0
0.375 0.5625 0
0.25 0.5625 0
0.28125 0.5625 0
0.25 0.59375 0
0.28125 0.59375 0
0.28125 0.5625 0
0.3125 0.5625 0
0.28125 0.59375 0
0.3125 0.59375 0
0.25 0.59375 0
0.28125 0.59375 0
0.25 0.625 0
0.28125 0.625 0
0.28125 0.59375 0
0.3125 0.59375 0
0.28125 0.625 0
0.3125 0.625 0
0.3125 0.5625 0
0.34375 0.5625 0
0.3125 0.59375 0
0.34375 0.59375 0
0.34375 0.5625 0
0.375 0.5625 0
0.34375 0.59375 0
0.375 0.59375 0
0.3125 0.59375 0
0.34375 0.59375 0
0.3125 0.625 0
0.34375 0.625 0
0.34375 0.59375 0
0.375 0.59375 0
0.34375 0.625 0
0.375 0.625 0
0.375 0.5 0
0.40625 0.5 0
0.375 0.53125 0
0.40625 0.53125 0
0.40625 0.5 0
0.4375 0.5 0
0.40625 0.53125 0
0.4375 0.53125 0
0.375 0.53125 0
0.40625 0.53125 0
0.375 0.5625 0
0.40625 0.5625 0
0.40625 0.53125 0
0.4375 0.53125 0
0.40625 0.5625 0
0.4375 0.5625 0
0.4375 0.5 0
0.46875 0.5 0
0.4375 0.53125 0
0.46875 0.53125 0
0.46875 0.5 0
0.5 0.5 0
0.46875 0.53125 0
0.5 0.53125 0
0.4375 0.53125 0
0.46875 0.53125 0
0.4375 0.5625 0
0.46875 0.5625 0
0.46875 0.53125 0
0.5 0.53125 0
0.46875 0.5625 0
0.5 0.5625 0
0.375 0.5625 0
0.40625 0.5625 0
0.375 0.59375 0
0.40625 0.59375 0
0.40625 0.5625 0
0.4375 0.5625 0
0.40625 0.59375 0
0.4375 0.59375 0
0.375 0.59375 0
0.40625 0.59375 0
0.375 0.625 0
0.40625 0.625 0
0.40625 0.59375 0
0.4375 0.59375 0
0.40625 0.625 0
0.4375 0.625 0
0.4375 0.5625 0
0.46875 0.5625 0
0.4375 0.59375 0
0.46875 0.59375 0
0.46875 0.5625 0
0.5 0.5625 0
0.46875 0.59375 0
0.5 0.59375 0
0.4375 0.59375 0
0.46875 0.59375 0
0.4375 0.625 0
0.46875 0.625 0
0.46875 0.59375 0
0.5 0.59375 0
0.46875 0.625 0
0.5 0.625 0
0.25 0.625 0
0.28125 0.625 0
0.25 0.65625 0
0.28125 0.65625 0
0.28125 0.625 0
0.3125 0.625 0
0.28125 0.65625 0
0.3125 0.65625 0
0.25 0.65625 0
0.28125 0.65625 0
0.25 0.6875 0
0.28125 0.6875 0
0.28125 0.65625 0
0.3125 0.65625 0
0.28125 0.6875 0
0.3125 0.6875 0
0.3125 0.625 0
0.34375 0.625 0
0.3125 0.65625 0
0.34375 0.65625 0
0.34375 0.625 0
0.375 0.625 0
0.34375 0.65625 0
0.375 0.65625 0
0.3125 0.65625 0
0.34375 0.65625 0
0.3125 0.6875 0
0.34375 0.6875 0
0.34375 0.65625 0
0.375 0.65625 0
0.34375 0.6875 0
0.375 0.6875 0
0.25 0.6875 0
0.28125 0.6875 0
0.25 0.71875 0
0.28125 0.71875 0
0.28125 0.6875 0
0.3125 0.6875 0
0.28125 0.71875 0
0.3125 0.71875 0
0.25 0.71875 0
0.28125 0.71875 0
0.25 0.75 0
0.28125 0.75 0
0.28125 0.71875 0
0.3125 0.71875 0
0.28125 0.75 0
0.3125 0.75 0
0.3125 0.6875 0
0.34375 0.6875 0
0.3125 0.71875 0
0.34375 0.71875 0
0.34375 0.6875 0
0.375 0.6875 0
0.34375 0.71875 0
0.375 0.71875 0
0.3125 0.71875 0
0.34375 0.71875 0
0.3125 0.75 0
0.34375 0.75 0
0.34375 0.71875 0
0.375 0.71875 0
0.34375 0.75 0
0.375 0.75 0
0.375 0.625 0
0.40625 0.625 0
0.375 0.65625 0
0.40625 0.65625 0
0.40625 0.625 0
0.4375 0.625 0
0.40625 0.65625 0
0.4375 0.65625 0
0.375 0.65625 0
0.40625 0.65625 0
0.375 0.6875 0
0.40625 0.6875 0
0.40625 0.65625 0
0.4375 0.65625 0
0.40625 0.6875 0
0.4375 0.6875 0
0.4375 0.625 0
0.46875 0.625 0
0.4375 0.65625 0
0.46875 0.65625 0
0.46875 0.625 0
0.5 0.625 0
0.46875 0.65625 0
0.5 0.65625 0
0.4375 0.65625 0
0.46875 0.65625 0
0.4375 0.6875 0
0.46875 0.6875 0
0.46875 0.65625 0
0.5 0.65625 0
0.46875 0.6875 0
0.5 0.6875 0
0.375 0.6875 0
0.40625 0.6875 0
0.375 0.71875 0
0.40625 0.71875 0
0.40625 0.6875 0
0.4375 0.6875 0
0.40625 0.71875 0
0.4375 0.71875 0
0.375 0.71875 0
0.40625 0.71875 0
0.375 0.75 0
0.40625 0.75 0
0.40625 0.71875 0
0.4375 0.71875 0
0.40625 0.75 0
0.4375 0.75 0
0.4375 0.6875 0
0.46875 0.6875 0
0.4375 0.71875 0
0.46875 0.71875 0
0.46875 0.6875 0
0.5 0.6875 0
0.46875 0.71875 0
0.5 0.71875 0
0.4375 0.71875 0
0.46875 0.71875 0
0.4375 0.75 0
0.46875 0.75 0
0.46875 0.71875 0
0.5 0.71875 0
0.46875 0.75 0
0.5 0.75 0
0 0.75 0
0.03125 0.75 0
0 0.78125 0
0.03125 0.78125 0
0.03125 0.75 0
0.0625 0.75 0
0.03125 0.78125 0
0.0625 0.78125 0
0 0.78125 0
0.03125 0.78125 0
0 0.8125 0
0.03125 0.8125 0
0.03125 0.78125 0
0.0625 0.78125 0
0.03125 0.8125 0
0.0625 0.8125 0
0.0625 0.75 0
0.09375 0.75 0
0.0625 0.78125 0
0.09375 0.78125 0
0.09375 0.75 0
0.125 0.75 0
0.09375 0.78125 0
0.125 0.78125 0
0.0625 0.78125 0
0.09375 0.78125 0
0.0625 0.8125 0
0.09375 0.8125 0
0.09375 0.78125 0
0.125 0.78125 0
0.09375 0.8125 0
0.125 0.8125 0
0 0.8125 0
0.03125 0.8125 0
0 0.84375 0
0.03125 0.84375 0
0.03125 0.8125 0
0.0625 0.8125 0
0.03125 0.84375 0
0.0625 0.84375 0
0 0.84375 0
0.03125 0.84375 0
0 0.875 0
0.03125 0.875 0
0.03125 0.84375 0
0.0625 0.84375 0
0.03125 0.875 0
0.0625 0.875 0
0.0625 0.8125 0
0.09375 0.8125 0
0.0625 0.84375 0
0.09375 0.84375 0
0.09375 0.8125 0
0.125 0.8125 0
0.09375 0.84375 0
0.125 0.84375 0
0.0625 0.84375 0
0.09375 0.84375 0
0.0625 0.875 0
0.09375 0.875 0
0.09375 0.84375 0
0.125 0.84375 0
0.09375 0.875 0
0.125 0.875 0
0.125 0.75 0
0.15625 0.75 0
0.125 0.78125 0
0.15625 0.78125 0
0.15625 0.75 0
0.1875 0.75 0
0.15625 0.78125 0
0.1875 0.78125 0
0.125 0.78125 0
0.15625 0.78125 0
0.125 0.8125 0
0.15625 0.8125 0
0.15625 0.78125 0
0.1875 0.78125 0
0.15625 0.8125 0
0.1875 0.8125 0
0.1875 0.75 0
0.21875 0.75 0
0.1875 0.78125 0
0.21875 0.78125 0
0.21875 0.75 0
0.25 0.75 0
0.21875 0.78125 0
0.25 0.78125 0
0.1875 0.78125 0
0.21875 0.78125 0
0.1875 0.8125 0
0.21875 0.8125 0
0.21875 0.78125 0
0.25 0.78125 0
0.21875 0.8125 0
0.25 0.8125 0
0.125 0.8125 0
0.15625 0.8125 0
0.125 0.84375 0
0.15625 0.84375 0
0.15625 0.8125 0
[...]
POINT_DATA 4096
SCALARS x_dis double 1
LOOKUP_TABLE default
-0.000590877 -0.000590789 -0.000700699 -0.000700601 -0.000590789 -0.000590721 -0.000700601 -0.000700515 -0.000700699 -0.000700601 -0.000810631 -0.000810525 -0.000700601 -0.000700515 -0.000810525 -0.000810422 -0.000590721 -0.00059067 -0.000700515 -0.000700451 -0.00059067 -0.000590637 -0.000700451 -0.000700428 -0.000700515 -0.000700451 -0.000810422 -0.000810345 -0.000700451 -0.000700428 -0.000810345 -0.000810327 -0.000810631 -0.000810525 -0.000920589 -0.000920477 -0.000810525 -0.000810422 -0.000920477 -0.00092036 -0.000920589 -0.000920477 -0.00103056 -0.00103044 -0.000920477 -0.00092036 -0.00103044 -0.00103031 -0.000810422 -0.000810345 -0.00092036 -0.000920268 -0.000810345 -0.000810327 -0.000920268 -0.000920245 -0.00092036 -0.000920268 -0.00103031 -0.0010302 -0.000920268 -0.000920245 -0.0010302 -0.00103017 -0.000590637 -0.000590622 -0.000700428 -0.000700475 -0.000590622 -0.000590628 -0.000700475 -0.000700646 -0.000700428 -0.000700475 -0.000810327 -0.000810419 -0.000700475 -0.000700646 -0.000810419 -0.000810713 -0.000590628 -0.000590653 -0.000700646 -0.00070105 -0.000590653 -0.000590691 -0.00070105 -0.000701861 -0.000700646 -0.00070105 -0.000810713 -0.000811395 -0.00070105 -0.000701861 -0.000811395 -0.000812768 -0.000810327 -0.000810419 -0.000920245 -0.000920356 -0.000810419 -0.000810713 -0.000920356 -0.000920709 -0.000920245 -0.000920356 -0.00103017 -0.00103027 -0.000920356 -0.000920709 -0.00103027 -0.00103061 -0.000810713 -0.000811395 -0.000920709 -0.000921514 -0.000811395 -0.000812768 -0.000921514 -0.00092312 -0.000920709 -0.000921514 -0.00103061 -0.0010314 -0.000921514 -0.00092312 -0.0010314 -0.00103293 -0.00103056 -0.00103044 -0.00114053 -0.00114041 -0.00103044 -0.00103031 -0.00114041 -0.00114028 -0.00114053 -0.00114041 -0.00125051 -0.00125039 -0.00114041 -0.00114028 -0.00125039 -0.00125025 -0.00103031 -0.0010302 -0.00114028 -0.00114015 -0.0010302 -0.00103017 -0.00114015 -0.00114009 -0.00114028 -0.00114015 -0.00125025 -0.00125012 -0.00114015 -0.00114009 -0.00125012 -0.00125003 -0.00125051 -0.00125039 -0.00136049 -0.00136037 -0.00125039 -0.00125025 -0.00136037 -0.00136024 -0.00136049 -0.00136037 -0.00147047 -0.00147035 -0.00136037 -0.00136024 -0.00147035 -0.00147023 -0.00125025 -0.00125012 -0.00136024 -0.0013601 -0.00125012 -0.00125003 -0.0013601 -0.00135999 -0.00136024 -0.0013601 -0.00147023 -0.0014701 -0.0013601 -0.00135999 -0.0014701 -0.00146998 -0.00103017 -0.00103027 -0.00114009 -0.00114016 -0.00103027 -0.00103061 -0.00114016 -0.00114045 -0.00114009 -0.00114016 -0.00125003 -0.00125005 -0.00114016 -0.00114045 -0.00125005 -0.00125025 -0.00103061 -0.0010314 -0.00114045 -0.00114111 -0.0010314 -0.00103293 -0.00114111 -0.00114238 -0.00114045 -0.00114111 -0.00125025 -0.00125076 -0.00114111 -0.00114238 -0.00125076 -0.0012517 -0.00125003 -0.00125005 -0.00135999 -0.00135996 -0.00125005 -0.00125025 -0.00135996 -0.00136006 -0.00135999 -0.00135996 -0.00146998 -0.00146991 -0.00135996 -0.00136006 -0.00146991 -0.00146992 -0.00125025 -0.00125076 -0.00136006 -0.00136039 -0.00125076 -0.0012517 -0.00136039 -0.00136104 -0.00136006 -0.00136039 -0.00146992 -0.00147009 -0.00136039 -0.00136104 -0.00147009 -0.00147047 -0.000590691 -0.00059073 -0.000701861 -0.000703316 -0.00059073 -0.000590754 -0.000703316 -0.000705713 -0.000701861 -0.000703316 -0.000812768 -0.000815245 -0.000703316 -0.000705713 -0.000815245 -0.000819334 -0.000590754 -0.000590745 -0.000705713 -0.000709463 -0.000590745 -0.000590688 -0.000709463 -0.000715231 -0.000705713 -0.000709463 -0.000819334 -0.000825677 -0.000709463 -0.000715231 -0.000825677 -0.000835187 -0.000812768 -0.000815245 -0.00092312 -0.000926001 -0.000815245 -0.000819334 -0.000926001 -0.000930712 -0.00092312 -0.000926001 -0.00103293 -0.00103563 -0.000926001 -0.000930712 -0.00103563 -0.00103996 -0.000819334 -0.000825677 -0.000930712 -0.000937873 -0.000825677 -0.000835187 -0.000937873 -0.000948195 -0.000930712 -0.000937873 -0.00103996 -0.00104634 -0.000937873 -0.000948195 -0.00104634 -0.00105511 -0.000590688 -0.00059056 -0.000715231 -0.000724251 -0.00059056 -0.000590317 -0.000724251 -0.000739185 -0.000715231 -0.000724251 -0.000835187 -0.0008493 -0.000724251 -0.000739185 -0.0008493 -0.000870139 -0.000590317 -0.000589685 -0.000739185 -0.000766049 -0.000589685 -0.000588808 -0.000766049 -0.000825052 -0.000739185 -0.000766049 -0.000870139 -0.00090084 -0.000766049 -0.000825052 -0.00090084 -0.000932807 -0.000835187 -0.0008493 -0.000948195 -0.000962433 -0.0008493 -0.000870139 -0.000962433 -0.000981131 -0.000948195 -0.000962433 -0.00105511 -0.00106633 -0.000962433 -0.000981131 -0.00106633 -0.00107935 -0.000870139 -0.00090084 -0.000981131 -0.00100237 -0.00090084 -0.000932807 -0.00100237 -0.0010238 -0.000981131 -0.00100237 -0.00107935 -0.00109285 -0.00100237 -0.0010238 -0.00109285 -0.001105 -0.00103293 -0.00103563 -0.00114238 -0.00114455 -0.00103563 -0.00103996 -0.00114455 -0.0011479 -0.00114238 -0.00114455 -0.0012517 -0.00125326 -0.00114455 -0.0011479 -0.00125326 -0.00125554 -0.00103996 -0.00104634 -0.0011479 -0.00115263 -0.00104634 -0.00105511 -0.00115263 -0.00115872 -0.0011479 -0.00115263 -0.00125554 -0.00125854 -0.00115263 -0.00115872 -0.00125854 -0.00126203 -0.0012517 -0.00125326 -0.00136104 -0.00136208 -0.00125326 -0.00125554 -0.00136208 -0.00136353 -0.00136104 -0.00136208 -0.00147047 -0.00147111 -0.00136208 -0.00136353 -0.00147111 -0.00147201 -0.00125554 -0.00125854 -0.00136353 -0.00136526 -0.00125854 -0.00126203 -0.00136526 -0.00136696 -0.00136353 -0.00136526 -0.00147201 -0.00147302 -0.00136526 -0.00136696 -0.00147302 -0.00147388 -0.00105511 -0.00106633 -0.00115872 -0.00116585 -0.00106633 -0.00107935 -0.00116585 -0.00117329 -0.00115872 -0.00116585 -0.00126203 -0.00126556 -0.00116585 -0.00117329 -0.00126556 -0.00126852 -0.00107935 -0.00109285 -0.00117329 -0.00118003 -0.00109285 -0.001105 -0.00118003 -0.00118521 -0.00117329 -0.00118003 -0.00126852 -0.00127026 -0.00118003 -0.00118521 -0.00127026 -0.00127039 -0.00126203 -0.00126556 -0.00136696 -0.00136819 -0.00126556 -0.00126852 -0.00136819 -0.00136846 -0.00136696 -0.00136819 -0.00147388 -0.00147419 -0.00136819 -0.00136846 -0.00147419 -0.00147359 -0.00126852 -0.00127026 -0.00136846 -0.00136737 -0.00127026 -0.00127039 -0.00136737 -0.00136484 -0.00136846 -0.00136737 -0.00147359 -0.00147184 -0.00136737 -0.00136484 -0.00147184 -0.00146899 -0.00147047 -0.00147035 -0.00158045 -0.00158034 -0.00147035 -0.00147023 -0.00158034 -0.00158022 -0.00158045 -0.00158034 -0.00169043 -0.00169032 -0.00158034 -0.00158022 -0.00169032 -0.00169022 -0.00147023 -0.0014701 -0.00158022 -0.00158011 -0.0014701 -0.00146998 -0.00158011 -0.00157999 -0.00158022 -0.00158011 -0.00169022 -0.00169011 -0.00158011 -0.00157999 -0.00169011 -0.00169001 -0.00169043 -0.00169032 -0.00180041 -0.0018003 -0.00169032 -0.00169022 -0.0018003 -0.0018002 -0.00180041 -0.0018003 -0.00191039 -0.00191028 -0.0018003 -0.0018002 -0.00191028 -0.00191019 -0.00169022 -0.00169011 -0.0018002 -0.00180012 -0.00169011 -0.00169001 -0.00180012 -0.00180003 -0.0018002 -0.00180012 -0.00191019 -0.00191012 -0.00180012 -0.00180003 -0.00191012 -0.00191005 -0.00146998 -0.00146991 -0.00157999 -0.0015799 -0.00146991 -0.00146992 -0.0015799 -0.00157985 -0.00157999 -0.0015799 -0.00169001 -0.00168992 -0.0015799 -0.00157985 -0.00168992 -0.00168984 -0.00146992 -0.00147009 -0.00157985 -0.00157988 -0.00147009 -0.00147047 -0.00157988 -0.00158005 -0.00157985 -0.00157988 -0.00168984 -0.0016898 -0.00157988 -0.00158005 -0.0016898 -0.00168983 -0.00169001 -0.00168992 -0.00180003 -0.00179995 -0.00168992 -0.00168984 -0.00179995 -0.00179987 -0.00180003 -0.00179995 -0.00191005 -0.00190998 -0.00179995 -0.00179987 -0.00190998 -0.00190991 -0.00168984 -0.0016898 -0.00179987 -0.0017998 -0.0016898 -0.00168983 -0.0017998 -0.00179976 -0.00179987 -0.0017998 -0.00190991 -0.00190984 -0.0017998 -0.00179976 -0.00190984 -0.00190979 -0.00191039 -0.00191028 -0.00202037 -0.00202026 -0.00191028 -0.00191019 -0.00202026 -0.00202017 -0.00202037 -0.00202026 -0.00213033 -0.00213023 -0.00202026 -0.00202017 -0.00213023 -0.00213014 -0.00191019 -0.00191012 -0.00202017 -0.0020201 -0.00191012 -0.00191005 -0.0020201 -0.00202005 -0.00202017 -0.0020201 -0.00213014 -0.00213009 -0.0020201 -0.00202005 -0.00213009 -0.00213005 -0.00213033 -0.00213023 -0.00224026 -0.00224015 -0.00213023 -0.00213014 -0.00224015 -0.00224009 -0.00224026 -0.00224015 -0.00235 -0.00235 -0.00224015 -0.00224009 -0.00235 -0.00235 -0.00213014 -0.00213009 -0.00224009 -0.00224005 -0.00213009 -0.00213005 -0.00224005 -0.00224003 -0.00224009 -0.00224005 -0.00235 -0.00235 -0.00224005 -0.00224003 -0.00235 -0.00235 -0.00191005 -0.00190998 -0.00202005 -0.00202 -0.00190998 -0.00190991 -0.00202 -0.00201995 -0.00202005 -0.00202 -0.00213005 -0.00213002 -0.00202 -0.00201995 -0.00213002 -0.00212999 -0.00190991 -0.00190984 -0.00201995 -0.0020199 -0.00190984 -0.00190979 -0.0020199 -0.00201985 -0.00201995 -0.0020199 -0.00212999 -0.00212996 -0.0020199 -0.00201985 -0.00212996 -0.00212992 -0.00213005 -0.00213002 -0.00224003 -0.00224002 -0.00213002 -0.00212999 -0.00224002 -0.00224001 -0.00224003 -0.00224002 -0.00235 -0.00235 -0.00224002 -0.00224001 -0.00235 -0.00235 -0.00212999 -0.00212996 -0.00224001 -0.00223999 -0.00212996 -0.00212992 -0.00223999 -0.00223997 -0.00224001 -0.00223999 -0.00235 -0.00235 -0.00223999 -0.00223997 -0.00235 -0.00235 -0.00147047 -0.00147111 -0.00158005 -0.00158039 -0.00147111 -0.00147201 -0.00158039 -0.0015809 -0.00158005 -0.00158039 -0.00168983 -0.00168994 -0.00158039 -0.0015809 -0.00168994 -0.00169016 -0.00147201 -0.00147302 -0.0015809 -0.00158152 -0.00147302 -0.00147388 -0.00158152 -0.00158207 -0.0015809 -0.00158152 -0.00169016 -0.00169048 -0.00158152 -0.00158207 -0.00169048 -0.00169083 -0.00168983 -0.00168994 -0.00179976 -0.00179976 -0.00168994 -0.00169016 -0.00179976 -0.00179979 -0.00179976 -0.00179976 -0.00190979 -0.00190975 -0.00179976 -0.00179979 -0.00190975 -0.00190973 -0.00169016 -0.00169048 -0.00179979 -0.00179988 -0.00169048 -0.00169083 -0.00179988 -0.00180002 -0.00179979 -0.00179988 -0.00190973 -0.00190971 -0.00179988 -0.00180002 -0.00190971 -0.00190971 -0.00147388 -0.00147419 -0.00158207 -0.0015823 -0.00147419 -0.00147359 -0.0015823 -0.00158196 -0.00158207 -0.0015823 -0.00169083 -0.00169111 -0.0015823 -0.00158196 -0.00169111 -0.00169118 -0.00147359 -0.00147184 -0.00158196 -0.0015809 -0.00147184 -0.00146899 -0.0015809 -0.00157918 -0.00158196 -0.0015809 -0.00169118 -0.00169096 -0.0015809 -0.00157918 -0.00169096 -0.00169047 -0.00169083 -0.00169111 -0.00180002 -0.00180018 -0.00169111 -0.00169118 -0.00180018 -0.00180032 -0.00180002 -0.00180018 -0.00190971 -0.00190973 -0.00180018 -0.00180032 -0.00190973 -0.00190976 -0.00169118 -0.00169096 -0.00180032 -0.00180042 -0.00169096 -0.00169047 -0.00180042 -0.00180047 -0.00180032 -0.00180042 -0.00190976 -0.0019098 -0.00180042 -0.00180047 -0.0019098 -0.00190984 -0.00190979 -0.00190975 -0.00201985 -0.00201981 -0.00190975 -0.00190973 -0.00201981 -0.00201979 -0.00201985 -0.00201981 -0.00212992 -0.00212989 -0.00201981 -0.00201979 -0.00212989 -0.00212986 -0.00190973 -0.00190971 -0.00201979 -0.00201977 -0.00190971 -0.00190971 -0.00201977 -0.00201975 -0.00201979 -0.00201977 -0.00212986 -0.00212984 -0.00201977 -0.00201975 -0.00212984 -0.00212983 -0.00212992 -0.00212989 -0.00223997 -0.00223994 -0.00212989 -0.00212986 -0.00223994 -0.00223991 -0.00223997 -0.00223994 -0.00235 -0.00235 -0.00223994 -0.00223991 -0.00235 -0.00235 -0.00212986 -0.00212984 -0.00223991 -0.00223989 -0.00212984 -0.00212983 -0.00223989 -0.00223988 -0.00223991 -0.00223989 -0.00235 -0.00235 -0.00223989 -0.00223988 -0.00235 -0.00235 -0.00190971 -0.00190973 -0.00201975 -0.00201973 -0.00190973 -0.00190976 -0.00201973 -0.00201971 -0.00201975 -0.00201973 -0.00212983 -0.00212983 -0.00201973 -0.00201971 -0.00212983 -0.00212984 -0.00190976 -0.0019098 -0.00201971 -0.00201969 -0.0019098 -0.00190984 -0.00201969 -0.00201968 -0.00201971 -0.00201969 -0.00212984 -0.00212986 -0.00201969 -0.00201968 -0.00212986 -0.00212988 -0.00212983 -0.00212983 -0.00223988 -0.00223988 -0.00212983 -0.00212984 -0.00223988 -0.00223991 -0.00223988 -0.00223988 -0.00235 -0.00235 -0.00223988 -0.00223991 -0.00235 -0.00235 -0.00212984 -0.00212986 -0.00223991 -0.00223994 -0.00212986 -0.00212988 -0.00223994 -0.00223999 -0.00223991 -0.00223994 -0.00235 -0.00235 -0.00223994 -0.00223999 -0.00235 -0.00235 -0.000588808 -0.000791959 -0.000825052 -0.00087178 -0.000791959 -0.000910629 -0.00087178 -0.000936698 -0.000825052 -0.00087178 -0.000932807 -0.000965782 -0.00087178 -0.000936698 -0.000965782 -0.000996965 -0.000910629 -0.000988649 -0.000936698 -0.000996263 -0.000988649 -0.00104436 -0.000996263 -0.001045 -0.000936698 -0.000996263 -0.000996965 -0.00103268 -0.000996263 -0.001045 -0.00103268 -0.00106729 -0.000932807 -0.000965782 -0.0010238 -0.00104269 -0.000965782 -0.000996965 -0.00104269 -0.00106137 -0.0010238 -0.00104269 -0.001105 -0.00111533 -0.00104269 -0.00106137 -0.00111533 -0.00112463 -0.000996965 -0.00103268 -0.00106137 -0.0010812 -0.00103268 -0.00106729 -0.0010812 -0.00110246 -0.00106137 -0.0010812 -0.00112463 -0.00113454 -0.0010812 -0.00110246 -0.00113454 -0.00114561 -0.00104436 -0.00108484 -0.001045 -0.00108357 -0.00108484 -0.00111406 -0.00108357 -0.00111354 -0.001045 -0.00108357 -0.00106729 -0.00109783 -0.00108357 -0.00111354 -0.00109783 -0.00112339 -0.00111406 -0.00113506 -0.00111354 -0.00113643 -0.00113506 -0.00115049 -0.00113643 -0.00115347 -0.00111354 -0.00113643 -0.00112339 -0.00114385 -0.00113643 -0.00115347 -0.00114385 -0.00115939 -0.00106729 -0.00109783 -0.00110246 -0.00112316 -0.00109783 -0.00112339 -0.00112316 -0.00114181 -0.00110246 -0.00112316 -0.00114561 -0.00115742 -0.00112316 -0.00114181 -0.00115742 -0.00116898 -0.00112339 -0.00114385 -0.00114181 -0.00115749 -0.00114385 -0.00115939 -0.00115749 -0.00116972 -0.00114181 -0.00115749 -0.00116898 -0.00117934 -0.00115749 -0.00116972 -0.00117934 -0.0011878 -0.001105 -0.00111533 -0.00118521 -0.00118869 -0.00111533 -0.00112463 -0.00118869 -0.00119125 -0.00118521 -0.00118869 -0.00127039 -0.00126909 -0.00118869 -0.00119125 -0.00126909 -0.00126705 -0.00112463 -0.00113454 -0.00119125 -0.00119402 -0.00113454 -0.00114561 -0.00119402 -0.00119785 -0.00119125 -0.00119402 -0.00126705 -0.00126527 -0.00119402 -0.00119785 -0.00126527 -0.00126458 -0.00127039 -0.00126909 -0.00136484 -0.00136118 -0.00126909 -0.00126705 -0.00136118 -0.00135708 -0.00136484 -0.00136118 -0.00146899 -0.00146538 -0.00136118 -0.00135708 -0.00146538 -0.00146162 -0.00126705 -0.00126527 -0.00135708 -0.00135342 -0.00126527 -0.00126458 -0.00135342 -0.00135095 -0.00135708 -0.00135342 -0.00146162 -0.00145841 -0.00135342 -0.00135095 -0.00145841 -0.00145632 -0.00114561 -0.00115742 -0.00119785 -0.00120287 -0.00115742 -0.00116898 -0.00120287 -0.00120869 -0.00119785 -0.00120287 -0.00126458 -0.00126539 -0.00120287 -0.00120869 -0.00126539 -0.00126757 -0.00116898 -0.00117934 -0.00120869 -0.0012146 -0.00117934 -0.0011878 -0.0012146 -0.00121988 -0.00120869 -0.0012146 -0.00126757 -0.00127059 -0.0012146 -0.00121988 -0.00127059 -0.00127378 -0.00126458 -0.00126539 -0.00135095 -0.00135007 -0.00126539 -0.00126757 -0.00135007 -0.0013507 -0.00135095 -0.00135007 -0.00145632 -0.00145557 -0.00135007 -0.0013507 -0.00145557 -0.00145602 -0.00126757 -0.00127059 -0.0013507 -0.00135237 -0.00127059 -0.00127378 -0.00135237 -0.00135442 -0.0013507 -0.00135237 -0.00145602 -0.00145722 -0.00135237 -0.00135442 -0.00145722 -0.00145862 -0.00115049 -0.00116223 -0.00115347 -0.00116567 -0.00116223 -0.00117108 -0.00116567 -0.00117387 -0.00115347 -0.00116567 -0.00115939 -0.00117035 -0.00116567 -0.00117387 -0.00117035 -0.00117739 -0.00117108 -0.00117712 -0.00117387 -0.00117886 -0.00117712 -0.00118046 -0.00117886 -0.0011814 -0.00117387 -0.00117886 -0.00117739 -0.00118138 -0.00117886 -0.0011814 -0.00118138 -0.00118327 -0.00115939 -0.00117035 -0.00116972 -0.00117841 -0.00117035 -0.00117739 -0.00117841 -0.00118393 -0.00116972 -0.00117841 -0.0011878 -0.00119401 -0.00117841 -0.00118393 -0.00119401 -0.00119806 -0.00117739 -0.00118138 -0.00118393 -0.001187 -0.00118138 -0.00118327 -0.001187 -0.00118845 -0.00118393 -0.001187 -0.00119806 -0.0012004 -0.001187 -0.00118845 -0.0012004 -0.00120156 -0.00118046 -0.00118173 -0.0011814 -0.00118226 -0.00118173 -0.00118184 -0.00118226 -0.00118219 -0.0011814 -0.00118226 -0.00118327 -0.00118387 -0.00118226 -0.00118219 -0.00118387 -0.00118381 -0.00118184 -0.00118159 -0.00118219 -0.00118185 -0.00118159 -0.00118146 -0.00118185 -0.00118168 -0.00118219 -0.00118185 -0.00118381 -0.00118356 -0.00118185 -0.00118168 -0.00118356 -0.00118344 -0.00118327 -0.00118387 -0.00118845 -0.00118895 -0.00118387 -0.00118381 -0.00118895 -0.00118896 -0.00118845 -0.00118895 -0.00120156 -0.00120199 -0.00118895 -0.00118896 -0.00120199 -0.00120201 -0.00118381 -0.00118356 -0.00118896 -0.00118882 -0.00118356 -0.00118344 -0.00118882 -0.00118874 -0.00118896 -0.00118882 -0.00120201 -0.00120187 -0.00118882 -0.00118874 -0.00120187 -0.0012018 -0.0011878 -0.00119401 -0.00121988 -0.00122404 -0.00119401 -0.00119806 -0.00122404 -0.00122693 -0.00121988 -0.00122404 -0.00127378 -0.00127655 -0.00122404 -0.00122693 -0.00127655 -0.0012786 -0.00119806 -0.0012004 -0.00122693 -0.0012287 -0.0012004 -0.00120156 -0.0012287 -0.00122961 -0.00122693 -0.0012287 -0.0012786 -0.00127987 -0.0012287 -0.00122961 -0.00127987 -0.00128047 -0.00127378 -0.00127655 -0.00135442 -0.00135629 -0.00127655 -0.0012786 -0.00135629 -0.00135766 -0.00135442 -0.00135629 -0.00145862 -0.00145981 -0.00135629 -0.00135766 -0.00145981 -0.00146058 -0.0012786 -0.00127987 -0.00135766 -0.00135845 -0.00127987 -0.00128047 -0.00135845 -0.00135873 -0.00135766 -0.00135845 -0.00146058 -0.00146094 -0.00135845 -0.00135873 -0.00146094 -0.00146097 -0.00120156 -0.00120199 -0.00122961 -0.00122991 -0.00120199 -0.00120201 -0.00122991 -0.00122984 -0.00122961 -0.00122991 -0.00128047 -0.00128058 -0.00122991 -0.00122984 -0.00128058 -0.0012804 -0.00120201 -0.00120187 -0.00122984 -0.00122965 -0.00120187 -0.0012018 -0.00122965 -0.00122954 -0.00122984 -0.00122965 -0.0012804 -0.00128015 -0.00122965 -0.00122954 -0.00128015 -0.00128002 -0.00128047 -0.00128058 -0.00135873 -0.00135866 -0.00128058 -0.0012804 -0.00135866 -0.00135842 -0.00135873 -0.00135866 -0.00146097 -0.0014608 -0.00135866 -0.00135842 -0.0014608 -0.00146056 -0.0012804 -0.00128015 -0.00135842 -0.00135816 -0.00128015 -0.00128002 -0.00135816 -0.00135801 -0.00135842 -0.00135816 -0.00146056 -0.00146032 -0.00135816 -0.00135801 -0.00146032 -0.00146016 -0.00146899 -0.00146538 -0.00157918 -0.00157706 -0.00146538 -0.00146162 -0.00157706 -0.00157497 -0.00157918 -0.00157706 -0.00169047 -0.00168985 -0.00157706 -0.00157497 -0.00168985 -0.0016893 -0.00146162 -0.00145841 -0.00157497 -0.00157336 -0.00145841 -0.00145632 -0.00157336 -0.00157252 -0.00157497 -0.00157336 -0.0016893 -0.00168902 -0.00157336 -0.00157252 -0.00168902 -0.00168908 -0.00169047 -0.00168985 -0.00180047 -0.00180051 -0.00168985 -0.0016893 -0.00180051 -0.00180059 -0.00180047 -0.00180051 -0.00190984 -0.0019099 -0.00180051 -0.00180059 -0.0019099 -0.00190997 -0.0016893 -0.00168902 -0.00180059 -0.00180074 -0.00168902 -0.00168908 -0.00180074 -0.00180096 -0.00180059 -0.00180074 -0.00190997 -0.00191004 -0.00180074 -0.00180096 -0.00191004 -0.00191011 -0.00145632 -0.00145557 -0.00157252 -0.00157252 -0.00145557 -0.00145602 -0.00157252 -0.00157314 -0.00157252 -0.00157252 -0.00168908 -0.00168945 -0.00157252 -0.00157314 -0.00168945 -0.00168998 -0.00145602 -0.00145722 -0.00157314 -0.00157404 -0.00145722 -0.00145862 -0.00157404 -0.00157489 -0.00157314 -0.00157404 -0.00168998 -0.00169048 -0.00157404 -0.00157489 -0.00169048 -0.00169084 -0.00168908 -0.00168945 -0.00180096 -0.00180122 -0.00168945 -0.00168998 -0.00180122 -0.00180144 -0.00180096 -0.00180122 -0.00191011 -0.00191016 -0.00180122 -0.00180144 -0.00191016 -0.00191019 -0.00168998 -0.00169048 -0.00180144 -0.00180159 -0.00169048 -0.00169084 -0.00180159 -0.00180166 -0.00180144 -0.00180159 -0.00191019 -0.0019102 -0.00180159 -0.00180166 -0.0019102 -0.00191019 -0.001909