# vtk DataFile Version 3.0
#This file was generated by the deal.II library on 2022/11/16 at 21:26:22
ASCII
DATASET UNSTRUCTURED_GRID

POINTS 4096 double
0 0.5 0
0.03125 0.5 0
0 0.53125 0
0.03125 0.53125 0
0.03125 0.5 0
0.0625 0.5 0
0.03125 0.53125 0
0.0625 0.53125 0
0 0.53125 0
0.03125 0.53125 0
0 0.5625 0
0.03125 0.5625 0
0.03125 0.53125 0
0.0625 0.53125 0
0.03125 0.5625 0
0.0625 0.5625 0
0.0625 0.5 0
0.09375 0.5 0
0.0625 0.53125 0
0.09375 0.53125 0
0.09375 0.5 0
0.125 0.5 0
0.09375 0.53125 0
0.125 0.53125 0
0.0625 0.53125 0
0.09375 0.53125 0
0.0625 0.5625 0
0.09375 0.5625 0
0.09375 0.53125 0
0.125 0.53125 0
0.09375 0.5625 0
0.125 0.5625 0
0 0.5625 0
0.03125 0.5625 0
0 0.59375 0
0.03125 0.59375 0
0.03125 0.5625 0
0.0625 0.5625 0
0.03125 0.59375 0
0.0625 0.59375 0
0 0.59375 0
0.03125 0.59375 0
0 0.625 0
0.03125 0.625 0
0.03125 0.59375 0
0.0625 0.59375 0
0.03125 0.625 0
0.0625 0.625 0
0.0625 0.5625 0
0.09375 0.5625 0
0.0625 0.59375 0
0.09375 0.59375 0
0.09375 0.5625 0
0.125 0.5625 0
0.09375 0.59375 0
0.125 0.59375 0
0.0625 0.59375 0
0.09375 0.59375 0
0.0625 0.625 0
0.09375 0.625 0
0.09375 0.59375 0
0.125 0.59375 0
0.09375 0.625 0
0.125 0.625 0
0.125 0.5 0
0.15625 0.5 0
0.125 0.53125 0
0.15625 0.53125 0
0.15625 0.5 0
0.1875 0.5 0
0.15625 0.53125 0
0.1875 0.53125 0
0.125 0.53125 0
0.15625 0.53125 0
0.125 0.5625 0
0.15625 0.5625 0
0.15625 0.53125 0
0.1875 0.53125 0
0.15625 0.5625 0
0.1875 0.5625 0
0.1875 0.5 0
0.21875 0.5 0
0.1875 0.53125 0
0.21875 0.53125 0
0.21875 0.5 0
0.25 0.5 0
0.21875 0.53125 0
0.25 0.53125 0
0.1875 0.53125 0
0.21875 0.53125 0
0.1875 0.5625 0
0.21875 0.5625 0
0.21875 0.53125 0
0.25 0.53125 0
0.21875 0.5625 0
0.25 0.5625 0
0.125 0.5625 0
0.15625 0.5625 0
0.125 0.59375 0
0.15625 0.59375 0
0.15625 0.5625 0
0.1875 0.5625 0
0.15625 0.59375 0
0.1875 0.59375 0
0.125 0.59375 0
0.15625 0.59375 0
0.125 0.625 0
0.15625 0.625 0
0.15625 0.59375 0
0.1875 0.59375 0
0.15625 0.625 0
0.1875 0.625 0
0.1875 0.5625 0
0.21875 0.5625 0
0.1875 0.59375 0
0.21875 0.59375 0
0.21875 0.5625 0
0.25 0.5625 0
0.21875 0.59375 0
0.25 0.59375 0
0.1875 0.59375 0
0.21875 0.59375 0
0.1875 0.625 0
0.21875 0.625 0
0.21875 0.59375 0
0.25 0.59375 0
0.21875 0.625 0
0.25 0.625 0
0 0.625 0
0.03125 0.625 0
0 0.65625 0
0.03125 0.65625 0
0.03125 0.625 0
0.0625 0.625 0
0.03125 0.65625 0
0.0625 0.65625 0
0 0.65625 0
0.03125 0.65625 0
0 0.6875 0
0.03125 0.6875 0
0.03125 0.65625 0
0.0625 0.65625 0
0.03125 0.6875 0
0.0625 0.6875 0
0.0625 0.625 0
0.09375 0.625 0
0.0625 0.65625 0
0.09375 0.65625 0
0.09375 0.625 0
0.125 0.625 0
0.09375 0.65625 0
0.125 0.65625 0
0.0625 0.65625 0
0.09375 0.65625 0
0.0625 0.6875 0
0.09375 0.6875 0
0.09375 0.65625 0
0.125 0.65625 0
0.09375 0.6875 0
0.125 0.6875 0
0 0.6875 0
0.03125 0.6875 0
0 0.71875 0
0.03125 0.71875 0
0.03125 0.6875 0
0.0625 0.6875 0
0.03125 0.71875 0
0.0625 0.71875 0
0 0.71875 0
0.03125 0.71875 0
0 0.75 0
0.03125 0.75 0
0.03125 0.71875 0
0.0625 0.71875 0
0.03125 0.75 0
0.0625 0.75 0
0.0625 0.6875 0
0.09375 0.6875 0
0.0625 0.71875 0
0.09375 0.71875 0
0.09375 0.6875 0
0.125 0.6875 0
0.09375 0.71875 0
0.125 0.71875 0
0.0625 0.71875 0
0.09375 0.71875 0
0.0625 0.75 0
0.09375 0.75 0
0.09375 0.71875 0
0.125 0.71875 0
0.09375 0.75 0
0.125 0.75 0
0.125 0.625 0
0.15625 0.625 0
0.125 0.65625 0
0.15625 0.65625 0
0.15625 0.625 0
0.1875 0.625 0
0.15625 0.65625 0
0.1875 0.65625 0
0.125 0.65625 0
0.15625 0.65625 0
0.125 0.6875 0
0.15625 0.6875 0
0.15625 0.65625 0
0.1875 0.65625 0
0.15625 0.6875 0
0.1875 0.6875 0
0.1875 0.625 0
0.21875 0.625 0
0.1875 0.65625 0
0.21875 0.65625 0
0.21875 0.625 0
0.25 0.625 0
0.21875 0.65625 0
0.25 0.65625 0
0.1875 0.65625 0
0.21875 0.65625 0
0.1875 0.6875 0
0.21875 0.6875 0
0.21875 0.65625 0
0.25 0.65625 0
0.21875 0.6875 0
0.25 0.6875 0
0.125 0.6875 0
0.15625 0.6875 0
0.125 0.71875 0
0.15625 0.71875 0
0.15625 0.6875 0
0.1875 0.6875 0
0.15625 0.71875 0
0.1875 0.71875 0
0.125 0.71875 0
0.15625 0.71875 0
0.125 0.75 0
0.15625 0.75 0
0.15625 0.71875 0
0.1875 0.71875 0
0.15625 0.75 0
0.1875 0.75 0
0.1875 0.6875 0
0.21875 0.6875 0
0.1875 0.71875 0
0.21875 0.71875 0
0.21875 0.6875 0
0.25 0.6875 0
0.21875 0.71875 0
0.25 0.71875 0
0.1875 0.71875 0
0.21875 0.71875 0
0.1875 0.75 0
0.21875 0.75 0
0.21875 0.71875 0
0.25 0.71875 0
0.21875 0.75 0
0.25 0.75 0
0.25 0.5 0
0.28125 0.5 0
0.25 0.53125 0
0.28125 0.53125 0
0.28125 0.5 0
0.3125 0.5 0
0.28125 0.53125 0
0.3125 0.53125 0
0.25 0.53125 0
0.28125 0.53125 0
0.25 0.5625 0
0.28125 0.5625 0
0.28125 0.53125 0
0.3125 0.53125 0
0.28125 0.5625 0
0.3125 0.5625 0
0.3125 0.5 0
0.34375 0.5 0
0.3125 0.53125 0
0.34375 0.53125 0
0.34375 0.5 0
0.375 0.5 0
0.34375 0.53125 0
0.375 0.53125 0
0.3125 0.53125 0
0.34375 0.53125 0
0.3125 0.5625 0
0.34375 0.5625 0
0.34375 0.53125 0
0.375 0.53125 0
0.34375 0.5625 0
0.375 0.5625 0
0.25 0.5625 0
0.28125 0.5625 0
0.25 0.59375 0
0.28125 0.59375 0
0.28125 0.5625 0
0.3125 0.5625 0
0.28125 0.59375 0
0.3125 0.59375 0
0.25 0.59375 0
0.28125 0.59375 0
0.25 0.625 0
0.28125 0.625 0
0.28125 0.59375 0
0.3125 0.59375 0
0.28125 0.625 0
0.3125 0.625 0
0.3125 0.5625 0
0.34375 0.5625 0
0.3125 0.59375 0
0.34375 0.59375 0
0.34375 0.5625 0
0.375 0.5625 0
0.34375 0.59375 0
0.375 0.59375 0
0.3125 0.59375 0
0.34375 0.59375 0
0.3125 0.625 0
0.34375 0.625 0
0.34375 0.59375 0
0.375 0.59375 0
0.34375 0.625 0
0.375 0.625 0
0.375 0.5 0
0.40625 0.5 0
0.375 0.53125 0
0.40625 0.53125 0
0.40625 0.5 0
0.4375 0.5 0
0.40625 0.53125 0
0.4375 0.53125 0
0.375 0.53125 0
0.40625 0.53125 0
0.375 0.5625 0
0.40625 0.5625 0
0.40625 0.53125 0
0.4375 0.53125 0
0.40625 0.5625 0
0.4375 0.5625 0
0.4375 0.5 0
0.46875 0.5 0
0.4375 0.53125 0
0.46875 0.53125 0
0.46875 0.5 0
0.5 0.5 0
0.46875 0.53125 0
0.5 0.53125 0
0.4375 0.53125 0
0.46875 0.53125 0
0.4375 0.5625 0
0.46875 0.5625 0
0.46875 0.53125 0
0.5 0.53125 0
0.46875 0.5625 0
0.5 0.5625 0
0.375 0.5625 0
0.40625 0.5625 0
0.375 0.59375 0
0.40625 0.59375 0
0.40625 0.5625 0
0.4375 0.5625 0
0.40625 0.59375 0
0.4375 0.59375 0
0.375 0.59375 0
0.40625 0.59375 0
0.375 0.625 0
0.40625 0.625 0
0.40625 0.59375 0
0.4375 0.59375 0
0.40625 0.625 0
0.4375 0.625 0
0.4375 0.5625 0
0.46875 0.5625 0
0.4375 0.59375 0
0.46875 0.59375 0
0.46875 0.5625 0
0.5 0.5625 0
0.46875 0.59375 0
0.5 0.59375 0
0.4375 0.59375 0
0.46875 0.59375 0
0.4375 0.625 0
0.46875 0.625 0
0.46875 0.59375 0
0.5 0.59375 0
0.46875 0.625 0
0.5 0.625 0
0.25 0.625 0
0.28125 0.625 0
0.25 0.65625 0
0.28125 0.65625 0
0.28125 0.625 0
0.3125 0.625 0
0.28125 0.65625 0
0.3125 0.65625 0
0.25 0.65625 0
0.28125 0.65625 0
0.25 0.6875 0
0.28125 0.6875 0
0.28125 0.65625 0
0.3125 0.65625 0
0.28125 0.6875 0
0.3125 0.6875 0
0.3125 0.625 0
0.34375 0.625 0
0.3125 0.65625 0
0.34375 0.65625 0
0.34375 0.625 0
0.375 0.625 0
0.34375 0.65625 0
0.375 0.65625 0
0.3125 0.65625 0
0.34375 0.65625 0
0.3125 0.6875 0
0.34375 0.6875 0
0.34375 0.65625 0
0.375 0.65625 0
0.34375 0.6875 0
0.375 0.6875 0
0.25 0.6875 0
0.28125 0.6875 0
0.25 0.71875 0
0.28125 0.71875 0
0.28125 0.6875 0
0.3125 0.6875 0
0.28125 0.71875 0
0.3125 0.71875 0
0.25 0.71875 0
0.28125 0.71875 0
0.25 0.75 0
0.28125 0.75 0
0.28125 0.71875 0
0.3125 0.71875 0
0.28125 0.75 0
0.3125 0.75 0
0.3125 0.6875 0
0.34375 0.6875 0
0.3125 0.71875 0
0.34375 0.71875 0
0.34375 0.6875 0
0.375 0.6875 0
0.34375 0.71875 0
0.375 0.71875 0
0.3125 0.71875 0
0.34375 0.71875 0
0.3125 0.75 0
0.34375 0.75 0
0.34375 0.71875 0
0.375 0.71875 0
0.34375 0.75 0
0.375 0.75 0
0.375 0.625 0
0.40625 0.625 0
0.375 0.65625 0
0.40625 0.65625 0
0.40625 0.625 0
0.4375 0.625 0
0.40625 0.65625 0
0.4375 0.65625 0
0.375 0.65625 0
0.40625 0.65625 0
0.375 0.6875 0
0.40625 0.6875 0
0.40625 0.65625 0
0.4375 0.65625 0
0.40625 0.6875 0
0.4375 0.6875 0
0.4375 0.625 0
0.46875 0.625 0
0.4375 0.65625 0
0.46875 0.65625 0
0.46875 0.625 0
0.5 0.625 0
0.46875 0.65625 0
0.5 0.65625 0
0.4375 0.65625 0
0.46875 0.65625 0
0.4375 0.6875 0
0.46875 0.6875 0
0.46875 0.65625 0
0.5 0.65625 0
0.46875 0.6875 0
0.5 0.6875 0
0.375 0.6875 0
0.40625 0.6875 0
0.375 0.71875 0
0.40625 0.71875 0
0.40625 0.6875 0
0.4375 0.6875 0
0.40625 0.71875 0
0.4375 0.71875 0
0.375 0.71875 0
0.40625 0.71875 0
0.375 0.75 0
0.40625 0.75 0
0.40625 0.71875 0
0.4375 0.71875 0
0.40625 0.75 0
0.4375 0.75 0
0.4375 0.6875 0
0.46875 0.6875 0
0.4375 0.71875 0
0.46875 0.71875 0
0.46875 0.6875 0
0.5 0.6875 0
0.46875 0.71875 0
0.5 0.71875 0
0.4375 0.71875 0
0.46875 0.71875 0
0.4375 0.75 0
0.46875 0.75 0
0.46875 0.71875 0
0.5 0.71875 0
0.46875 0.75 0
0.5 0.75 0
0 0.75 0
0.03125 0.75 0
0 0.78125 0
0.03125 0.78125 0
0.03125 0.75 0
0.0625 0.75 0
0.03125 0.78125 0
0.0625 0.78125 0
0 0.78125 0
0.03125 0.78125 0
0 0.8125 0
0.03125 0.8125 0
0.03125 0.78125 0
0.0625 0.78125 0
0.03125 0.8125 0
0.0625 0.8125 0
0.0625 0.75 0
0.09375 0.75 0
0.0625 0.78125 0
0.09375 0.78125 0
0.09375 0.75 0
0.125 0.75 0
0.09375 0.78125 0
0.125 0.78125 0
0.0625 0.78125 0
0.09375 0.78125 0
0.0625 0.8125 0
0.09375 0.8125 0
0.09375 0.78125 0
0.125 0.78125 0
0.09375 0.8125 0
0.125 0.8125 0
0 0.8125 0
0.03125 0.8125 0
0 0.84375 0
0.03125 0.84375 0
0.03125 0.8125 0
0.0625 0.8125 0
0.03125 0.84375 0
0.0625 0.84375 0
0 0.84375 0
0.03125 0.84375 0
0 0.875 0
0.03125 0.875 0
0.03125 0.84375 0
0.0625 0.84375 0
0.03125 0.875 0
0.0625 0.875 0
0.0625 0.8125 0
0.09375 0.8125 0
0.0625 0.84375 0
0.09375 0.84375 0
0.09375 0.8125 0
0.125 0.8125 0
0.09375 0.84375 0
0.125 0.84375 0
0.0625 0.84375 0
0.09375 0.84375 0
0.0625 0.875 0
0.09375 0.875 0
0.09375 0.84375 0
0.125 0.84375 0
0.09375 0.875 0
0.125 0.875 0
0.125 0.75 0
0.15625 0.75 0
0.125 0.78125 0
0.15625 0.78125 0
0.15625 0.75 0
0.1875 0.75 0
0.15625 0.78125 0
0.1875 0.78125 0
0.125 0.78125 0
0.15625 0.78125 0
0.125 0.8125 0
0.15625 0.8125 0
0.15625 0.78125 0
0.1875 0.78125 0
0.15625 0.8125 0
0.1875 0.8125 0
0.1875 0.75 0
0.21875 0.75 0
0.1875 0.78125 0
0.21875 0.78125 0
0.21875 0.75 0
0.25 0.75 0
0.21875 0.78125 0
0.25 0.78125 0
0.1875 0.78125 0
0.21875 0.78125 0
0.1875 0.8125 0
0.21875 0.8125 0
0.21875 0.78125 0
0.25 0.78125 0
0.21875 0.8125 0
0.25 0.8125 0
0.125 0.8125 0
0.15625 0.8125 0
0.125 0.84375 0
0.15625 0.84375 0
0.15625 0.8125 0
[...]
POINT_DATA 4096
SCALARS x_dis double 1
LOOKUP_TABLE default
-1.71528e-06 -1.71518e-06 -5.135e-08 -5.12091e-08 -1.71518e-06 -1.71492e-06 -5.12091e-08 -5.08018e-08 -5.135e-08 -5.12091e-08 7.76455e-06 7.76477e-06 -5.12091e-08 -5.08018e-08 7.76477e-06 7.76537e-06 -1.71492e-06 -1.7145e-06 -5.08018e-08 -5.01709e-08 -1.7145e-06 -1.71397e-06 -5.01709e-08 -4.93781e-08 -5.08018e-08 -5.01709e-08 7.76537e-06 7.7663e-06 -5.01709e-08 -4.93781e-08 7.7663e-06 7.76745e-06 7.76455e-06 7.76477e-06 7.06858e-06 7.06889e-06 7.76477e-06 7.76537e-06 7.06889e-06 7.06978e-06 7.06858e-06 7.06889e-06 -2.30991e-05 -2.30986e-05 7.06889e-06 7.06978e-06 -2.30986e-05 -2.30973e-05 7.76537e-06 7.7663e-06 7.06978e-06 7.0711e-06 7.7663e-06 7.76745e-06 7.0711e-06 7.07273e-06 7.06978e-06 7.0711e-06 -2.30973e-05 -2.30954e-05 7.0711e-06 7.07273e-06 -2.30954e-05 -2.30932e-05 -1.71397e-06 -1.71337e-06 -4.93781e-08 -4.84955e-08 -1.71337e-06 -1.71274e-06 -4.84955e-08 -4.7586e-08 -4.93781e-08 -4.84955e-08 7.76745e-06 7.76872e-06 -4.84955e-08 -4.7586e-08 7.76872e-06 7.77002e-06 -1.71274e-06 -1.71213e-06 -4.7586e-08 -4.66789e-08 -1.71213e-06 -1.71155e-06 -4.66789e-08 -4.57774e-08 -4.7586e-08 -4.66789e-08 7.77002e-06 7.7713e-06 -4.66789e-08 -4.57774e-08 7.7713e-06 7.77257e-06 7.76745e-06 7.76872e-06 7.07273e-06 7.0745e-06 7.76872e-06 7.77002e-06 7.0745e-06 7.07629e-06 7.07273e-06 7.0745e-06 -2.30932e-05 -2.30908e-05 7.0745e-06 7.07629e-06 -2.30908e-05 -2.30884e-05 7.77002e-06 7.7713e-06 7.07629e-06 7.07804e-06 7.7713e-06 7.77257e-06 7.07804e-06 7.07973e-06 7.07629e-06 7.07804e-06 -2.30884e-05 -2.30861e-05 7.07804e-06 7.07973e-06 -2.30861e-05 -2.3084e-05 -2.30991e-05 -2.30986e-05 -8.83419e-05 -8.83408e-05 -2.30986e-05 -2.30973e-05 -8.83408e-05 -8.83389e-05 -8.83419e-05 -8.83408e-05 -0.000178998 -0.000178996 -8.83408e-05 -8.83389e-05 -0.000178996 -0.000178993 -2.30973e-05 -2.30954e-05 -8.83389e-05 -8.83363e-05 -2.30954e-05 -2.30932e-05 -8.83363e-05 -8.83333e-05 -8.83389e-05 -8.83363e-05 -0.000178993 -0.000178989 -8.83363e-05 -8.83333e-05 -0.000178989 -0.000178985 -0.000178998 -0.000178996 -0.000282466 -0.000282462 -0.000178996 -0.000178993 -0.000282462 -0.000282458 -0.000282466 -0.000282462 -0.000390695 -0.00039069 -0.000282462 -0.000282458 -0.00039069 -0.000390684 -0.000178993 -0.000178989 -0.000282458 -0.000282453 -0.000178989 -0.000178985 -0.000282453 -0.000282448 -0.000282458 -0.000282453 -0.000390684 -0.000390678 -0.000282453 -0.000282448 -0.000390678 -0.000390672 -2.30932e-05 -2.30908e-05 -8.83333e-05 -8.83302e-05 -2.30908e-05 -2.30884e-05 -8.83302e-05 -8.83271e-05 -8.83333e-05 -8.83302e-05 -0.000178985 -0.000178981 -8.83302e-05 -8.83271e-05 -0.000178981 -0.000178977 -2.30884e-05 -2.30861e-05 -8.83271e-05 -8.83242e-05 -2.30861e-05 -2.3084e-05 -8.83242e-05 -8.83215e-05 -8.83271e-05 -8.83242e-05 -0.000178977 -0.000178974 -8.83242e-05 -8.83215e-05 -0.000178974 -0.00017897 -0.000178985 -0.000178981 -0.000282448 -0.000282444 -0.000178981 -0.000178977 -0.000282444 -0.000282439 -0.000282448 -0.000282444 -0.000390672 -0.000390667 -0.000282444 -0.000282439 -0.000390667 -0.000390662 -0.000178977 -0.000178974 -0.000282439 -0.000282435 -0.000178974 -0.00017897 -0.000282435 -0.000282431 -0.000282439 -0.000282435 -0.000390662 -0.000390657 -0.000282435 -0.000282431 -0.000390657 -0.000390652 -1.71155e-06 -1.71102e-06 -4.57774e-08 -4.49165e-08 -1.71102e-06 -1.71059e-06 -4.49165e-08 -4.4433e-08 -4.57774e-08 -4.49165e-08 7.77257e-06 7.77375e-06 -4.49165e-08 -4.4433e-08 7.77375e-06 7.77446e-06 -1.71059e-06 -1.7103e-06 -4.4433e-08 -4.51869e-08 -1.7103e-06 -1.71004e-06 -4.51869e-08 -4.61725e-08 -4.4433e-08 -4.51869e-08 7.77446e-06 7.77386e-06 -4.51869e-08 -4.61725e-08 7.77386e-06 7.77272e-06 7.77257e-06 7.77375e-06 7.07973e-06 7.08127e-06 7.77375e-06 7.77446e-06 7.08127e-06 7.08231e-06 7.07973e-06 7.08127e-06 -2.3084e-05 -2.3082e-05 7.08127e-06 7.08231e-06 -2.3082e-05 -2.30804e-05 7.77446e-06 7.77386e-06 7.08231e-06 7.08244e-06 7.77386e-06 7.77272e-06 7.08244e-06 7.08222e-06 7.08231e-06 7.08244e-06 -2.30804e-05 -2.30797e-05 7.08244e-06 7.08222e-06 -2.30797e-05 -2.30796e-05 -1.71004e-06 -1.70954e-06 -4.61725e-08 -3.95411e-08 -1.70954e-06 -1.70917e-06 -3.95411e-08 -1.7662e-08 -4.61725e-08 -3.95411e-08 7.77272e-06 7.77648e-06 -3.95411e-08 -1.7662e-08 7.77648e-06 7.78987e-06 -1.70917e-06 -1.71042e-06 -1.7662e-08 -3.11451e-09 -1.71042e-06 -1.71256e-06 -3.11451e-09 -1.05892e-07 -1.7662e-08 -3.11451e-09 7.78987e-06 7.80744e-06 -3.11451e-09 -1.05892e-07 7.80744e-06 7.89278e-06 7.77272e-06 7.77648e-06 7.08222e-06 7.08394e-06 7.77648e-06 7.78987e-06 7.08394e-06 7.08613e-06 7.08222e-06 7.08394e-06 -2.30796e-05 -2.30787e-05 7.08394e-06 7.08613e-06 -2.30787e-05 -2.30753e-05 7.78987e-06 7.80744e-06 7.08613e-06 7.08727e-06 7.80744e-06 7.89278e-06 7.08727e-06 7.07402e-06 7.08613e-06 7.08727e-06 -2.30753e-05 -2.30753e-05 7.08727e-06 7.07402e-06 -2.30753e-05 -2.3087e-05 -2.3084e-05 -2.3082e-05 -8.83215e-05 -8.8319e-05 -2.3082e-05 -2.30804e-05 -8.8319e-05 -8.83169e-05 -8.83215e-05 -8.8319e-05 -0.00017897 -0.000178968 -8.8319e-05 -8.83169e-05 -0.000178968 -0.000178965 -2.30804e-05 -2.30797e-05 -8.83169e-05 -8.83153e-05 -2.30797e-05 -2.30796e-05 -8.83153e-05 -8.83148e-05 -8.83169e-05 -8.83153e-05 -0.000178965 -0.000178963 -8.83153e-05 -8.83148e-05 -0.000178963 -0.000178961 -0.00017897 -0.000178968 -0.000282431 -0.000282427 -0.000178968 -0.000178965 -0.000282427 -0.000282425 -0.000282431 -0.000282427 -0.000390652 -0.000390648 -0.000282427 -0.000282425 -0.000390648 -0.000390645 -0.000178965 -0.000178963 -0.000282425 -0.000282422 -0.000178963 -0.000178961 -0.000282422 -0.00028242 -0.000282425 -0.000282422 -0.000390645 -0.000390642 -0.000282422 -0.00028242 -0.000390642 -0.00039064 -2.30796e-05 -2.30787e-05 -8.83148e-05 -8.8315e-05 -2.30787e-05 -2.30753e-05 -8.8315e-05 -8.83143e-05 -8.83148e-05 -8.8315e-05 -0.000178961 -0.000178961 -8.8315e-05 -8.83143e-05 -0.000178961 -0.000178961 -2.30753e-05 -2.30753e-05 -8.83143e-05 -8.83109e-05 -2.30753e-05 -2.3087e-05 -8.83109e-05 -8.83045e-05 -8.83143e-05 -8.83109e-05 -0.000178961 -0.000178961 -8.83109e-05 -8.83045e-05 -0.000178961 -0.000178959 -0.000178961 -0.000178961 -0.00028242 -0.000282418 -0.000178961 -0.000178961 -0.000282418 -0.000282417 -0.00028242 -0.000282418 -0.00039064 -0.000390638 -0.000282418 -0.000282417 -0.000390638 -0.000390637 -0.000178961 -0.000178961 -0.000282417 -0.000282416 -0.000178961 -0.000178959 -0.000282416 -0.000282416 -0.000282417 -0.000282416 -0.000390637 -0.000390635 -0.000282416 -0.000282416 -0.000390635 -0.000390634 -0.000390695 -0.00039069 -0.000500294 -0.000500287 -0.00039069 -0.000390684 -0.000500287 -0.000500279 -0.000500294 -0.000500287 -0.000610185 -0.000610176 -0.000500287 -0.000500279 -0.000610176 -0.000610167 -0.000390684 -0.000390678 -0.000500279 -0.000500272 -0.000390678 -0.000390672 -0.000500272 -0.000500265 -0.000500279 -0.000500272 -0.000610167 -0.000610158 -0.000500272 -0.000500265 -0.000610158 -0.000610151 -0.000610185 -0.000610176 -0.000720144 -0.000720132 -0.000610176 -0.000610167 -0.000720132 -0.000720121 -0.000720144 -0.000720132 -0.000830108 -0.000830094 -0.000720132 -0.000720121 -0.000830094 -0.000830082 -0.000610167 -0.000610158 -0.000720121 -0.000720111 -0.000610158 -0.000610151 -0.000720111 -0.000720103 -0.000720121 -0.000720111 -0.000830082 -0.000830071 -0.000720111 -0.000720103 -0.000830071 -0.000830062 -0.000390672 -0.000390667 -0.000500265 -0.000500259 -0.000390667 -0.000390662 -0.000500259 -0.000500253 -0.000500265 -0.000500259 -0.000610151 -0.000610144 -0.000500259 -0.000500253 -0.000610144 -0.000610137 -0.000390662 -0.000390657 -0.000500253 -0.000500248 -0.000390657 -0.000390652 -0.000500248 -0.000500243 -0.000500253 -0.000500248 -0.000610137 -0.000610132 -0.000500248 -0.000500243 -0.000610132 -0.000610127 -0.000610151 -0.000610144 -0.000720103 -0.000720095 -0.000610144 -0.000610137 -0.000720095 -0.000720089 -0.000720103 -0.000720095 -0.000830062 -0.000830055 -0.000720095 -0.000720089 -0.000830055 -0.000830049 -0.000610137 -0.000610132 -0.000720089 -0.000720084 -0.000610132 -0.000610127 -0.000720084 -0.000720079 -0.000720089 -0.000720084 -0.000830049 -0.000830044 -0.000720084 -0.000720079 -0.000830044 -0.00083004 -0.000830108 -0.000830094 -0.000940086 -0.000940069 -0.000830094 -0.000830082 -0.000940069 -0.000940055 -0.000940086 -0.000940069 -0.00105006 -0.00105005 -0.000940069 -0.000940055 -0.00105005 -0.00105003 -0.000830082 -0.000830071 -0.000940055 -0.000940044 -0.000830071 -0.000830062 -0.000940044 -0.000940036 -0.000940055 -0.000940044 -0.00105003 -0.00105002 -0.000940044 -0.000940036 -0.00105002 -0.00105001 -0.00105006 -0.00105005 -0.00116005 -0.00116002 -0.00105005 -0.00105003 -0.00116002 -0.00116001 -0.00116005 -0.00116002 -0.00127 -0.00127 -0.00116002 -0.00116001 -0.00127 -0.00127 -0.00105003 -0.00105002 -0.00116001 -0.00116001 -0.00105002 -0.00105001 -0.00116001 -0.00116 -0.00116001 -0.00116001 -0.00127 -0.00127 -0.00116001 -0.00116 -0.00127 -0.00127 -0.000830062 -0.000830055 -0.000940036 -0.000940029 -0.000830055 -0.000830049 -0.000940029 -0.000940024 -0.000940036 -0.000940029 -0.00105001 -0.00105001 -0.000940029 -0.000940024 -0.00105001 -0.00105001 -0.000830049 -0.000830044 -0.000940024 -0.00094002 -0.000830044 -0.00083004 -0.00094002 -0.000940017 -0.000940024 -0.00094002 -0.00105001 -0.00105 -0.00094002 -0.000940017 -0.00105 -0.00105 -0.00105001 -0.00105001 -0.00116 -0.00116 -0.00105001 -0.00105001 -0.00116 -0.00116 -0.00116 -0.00116 -0.00127 -0.00127 -0.00116 -0.00116 -0.00127 -0.00127 -0.00105001 -0.00105 -0.00116 -0.00116 -0.00105 -0.00105 -0.00116 -0.00116 -0.00116 -0.00116 -0.00127 -0.00127 -0.00116 -0.00116 -0.00127 -0.00127 -0.000390652 -0.000390648 -0.000500243 -0.000500239 -0.000390648 -0.000390645 -0.000500239 -0.000500235 -0.000500243 -0.000500239 -0.000610127 -0.000610123 -0.000500239 -0.000500235 -0.000610123 -0.000610119 -0.000390645 -0.000390642 -0.000500235 -0.000500232 -0.000390642 -0.00039064 -0.000500232 -0.00050023 -0.000500235 -0.000500232 -0.000610119 -0.000610116 -0.000500232 -0.00050023 -0.000610116 -0.000610114 -0.000610127 -0.000610123 -0.000720079 -0.000720075 -0.000610123 -0.000610119 -0.000720075 -0.000720072 -0.000720079 -0.000720075 -0.00083004 -0.000830036 -0.000720075 -0.000720072 -0.000830036 -0.000830034 -0.000610119 -0.000610116 -0.000720072 -0.000720069 -0.000610116 -0.000610114 -0.000720069 -0.000720067 -0.000720072 -0.000720069 -0.000830034 -0.000830031 -0.000720069 -0.000720067 -0.000830031 -0.000830029 -0.00039064 -0.000390638 -0.00050023 -0.000500228 -0.000390638 -0.000390637 -0.000500228 -0.000500227 -0.00050023 -0.000500228 -0.000610114 -0.000610112 -0.000500228 -0.000500227 -0.000610112 -0.00061011 -0.000390637 -0.000390635 -0.000500227 -0.000500225 -0.000390635 -0.000390634 -0.000500225 -0.000500224 -0.000500227 -0.000500225 -0.00061011 -0.000610109 -0.000500225 -0.000500224 -0.000610109 -0.000610108 -0.000610114 -0.000610112 -0.000720067 -0.000720065 -0.000610112 -0.00061011 -0.000720065 -0.000720063 -0.000720067 -0.000720065 -0.000830029 -0.000830027 -0.000720065 -0.000720063 -0.000830027 -0.000830026 -0.00061011 -0.000610109 -0.000720063 -0.000720061 -0.000610109 -0.000610108 -0.000720061 -0.00072006 -0.000720063 -0.000720061 -0.000830026 -0.000830024 -0.000720061 -0.00072006 -0.000830024 -0.000830023 -0.00083004 -0.000830036 -0.000940017 -0.000940014 -0.000830036 -0.000830034 -0.000940014 -0.000940012 -0.000940017 -0.000940014 -0.00105 -0.00105 -0.000940014 -0.000940012 -0.00105 -0.00105 -0.000830034 -0.000830031 -0.000940012 -0.00094001 -0.000830031 -0.000830029 -0.00094001 -0.000940008 -0.000940012 -0.00094001 -0.00105 -0.00105 -0.00094001 -0.000940008 -0.00105 -0.00104999 -0.00105 -0.00105 -0.00116 -0.00116 -0.00105 -0.00105 -0.00116 -0.00115999 -0.00116 -0.00116 -0.00127 -0.00127 -0.00116 -0.00115999 -0.00127 -0.00127 -0.00105 -0.00105 -0.00115999 -0.00115999 -0.00105 -0.00104999 -0.00115999 -0.00115999 -0.00115999 -0.00115999 -0.00127 -0.00127 -0.00115999 -0.00115999 -0.00127 -0.00127 -0.000830029 -0.000830027 -0.000940008 -0.000940006 -0.000830027 -0.000830026 -0.000940006 -0.000940005 -0.000940008 -0.000940006 -0.00104999 -0.00104999 -0.000940006 -0.000940005 -0.00104999 -0.00104999 -0.000830026 -0.000830024 -0.000940005 -0.000940004 -0.000830024 -0.000830023 -0.000940004 -0.000940003 -0.000940005 -0.000940004 -0.00104999 -0.00104999 -0.000940004 -0.000940003 -0.00104999 -0.00104999 -0.00104999 -0.00104999 -0.00115999 -0.00115999 -0.00104999 -0.00104999 -0.00115999 -0.00115999 -0.00115999 -0.00115999 -0.00127 -0.00127 -0.00115999 -0.00115999 -0.00127 -0.00127 -0.00104999 -0.00104999 -0.00115999 -0.00115999 -0.00104999 -0.00104999 -0.00115999 -0.00115999 -0.00115999 -0.00115999 -0.00127 -0.00127 -0.00115999 -0.00115999 -0.00127 -0.00127 -1.71256e-06 -3.07569e-06 -1.05892e-07 -4.38473e-08 -3.07569e-06 -3.52912e-06 -4.38473e-08 -6.52915e-08 -1.05892e-07 -4.38473e-08 7.89278e-06 7.99915e-06 -4.38473e-08 -6.52915e-08 7.99915e-06 8.07886e-06 -3.52912e-06 -3.51664e-06 -6.52915e-08 -1.71303e-08 -3.51664e-06 -3.4388e-06 -1.71303e-08 4.8507e-08 -6.52915e-08 -1.71303e-08 8.07886e-06 8.09565e-06 -1.71303e-08 4.8507e-08 8.09565e-06 8.10717e-06 7.89278e-06 7.99915e-06 7.07402e-06 7.0471e-06 7.99915e-06 8.07886e-06 7.0471e-06 7.01365e-06 7.07402e-06 7.0471e-06 -2.3087e-05 -2.31073e-05 7.0471e-06 7.01365e-06 -2.31073e-05 -2.31182e-05 8.07886e-06 8.09565e-06 7.01365e-06 6.99946e-06 8.09565e-06 8.10717e-06 6.99946e-06 7.00126e-06 7.01365e-06 6.99946e-06 -2.31182e-05 -2.31142e-05 6.99946e-06 7.00126e-06 -2.31142e-05 -2.31065e-05 -3.4388e-06 -3.40505e-06 4.8507e-08 7.11241e-08 -3.40505e-06 -3.40589e-06 7.11241e-08 6.34732e-08 4.8507e-08 7.11241e-08 8.10717e-06 8.11234e-06 7.11241e-08 6.34732e-08 8.11234e-06 8.10906e-06 -3.40589e-06 -3.41505e-06 6.34732e-08 5.59243e-08 -3.41505e-06 -3.41747e-06 5.59243e-08 5.58401e-08 6.34732e-08 5.59243e-08 8.10906e-06 8.10619e-06 5.59243e-08 5.58401e-08 8.10619e-06 8.10659e-06 8.10717e-06 8.11234e-06 7.00126e-06 7.0055e-06 8.11234e-06 8.10906e-06 7.0055e-06 7.00524e-06 7.00126e-06 7.0055e-06 -2.31065e-05 -2.31048e-05 7.0055e-06 7.00524e-06 -2.31048e-05 -2.31061e-05 8.10906e-06 8.10619e-06 7.00524e-06 7.00409e-06 8.10619e-06 8.10659e-06 7.00409e-06 7.00473e-06 7.00524e-06 7.00409e-06 -2.31061e-05 -2.31061e-05 7.00409e-06 7.00473e-06 -2.31061e-05 -2.31042e-05 -2.3087e-05 -2.31073e-05 -8.83045e-05 -8.82954e-05 -2.31073e-05 -2.31182e-05 -8.82954e-05 -8.82855e-05 -8.83045e-05 -8.82954e-05 -0.000178959 -0.000178956 -8.82954e-05 -8.82855e-05 -0.000178956 -0.000178954 -2.31182e-05 -2.31142e-05 -8.82855e-05 -8.8279e-05 -2.31142e-05 -2.31065e-05 -8.8279e-05 -8.82782e-05 -8.82855e-05 -8.8279e-05 -0.000178954 -0.000178955 -8.8279e-05 -8.82782e-05 -0.000178955 -0.000178956 -0.000178959 -0.000178956 -0.000282416 -0.000282417 -0.000178956 -0.000178954 -0.000282417 -0.000282417 -0.000282416 -0.000282417 -0.000390634 -0.000390633 -0.000282417 -0.000282417 -0.000390633 -0.000390632 -0.000178954 -0.000178955 -0.000282417 -0.000282416 -0.000178955 -0.000178956 -0.000282416 -0.000282415 -0.000282417 -0.000282416 -0.000390632 -0.00039063 -0.000282416 -0.000282415 -0.00039063 -0.000390628 -2.31065e-05 -2.31048e-05 -8.82782e-05 -8.82798e-05 -2.31048e-05 -2.31061e-05 -8.82798e-05 -8.82799e-05 -8.82782e-05 -8.82798e-05 -0.000178956 -0.000178956 -8.82798e-05 -8.82799e-05 -0.000178956 -0.000178953 -2.31061e-05 -2.31061e-05 -8.82799e-05 -8.82778e-05 -2.31061e-05 -2.31042e-05 -8.82778e-05 -8.8275e-05 -8.82799e-05 -8.82778e-05 -0.000178953 -0.00017895 -8.82778e-05 -8.8275e-05 -0.00017895 -0.000178947 -0.000178956 -0.000178956 -0.000282415 -0.000282412 -0.000178956 -0.000178953 -0.000282412 -0.00028241 -0.000282415 -0.000282412 -0.000390628 -0.000390626 -0.000282412 -0.00028241 -0.000390626 -0.000390623 -0.000178953 -0.00017895 -0.00028241 -0.000282407 -0.00017895 -0.000178947 -0.000282407 -0.000282403 -0.00028241 -0.000282407 -0.000390623 -0.00039062 -0.000282407 -0.000282403 -0.00039062 -0.000390616 -3.41747e-06 -3.41472e-06 5.58401e-08 5.82357e-08 -3.41472e-06 -3.41221e-06 5.82357e-08 5.99207e-08 5.58401e-08 5.82357e-08 8.10659e-06 8.10825e-06 5.82357e-08 5.99207e-08 8.10825e-06 8.1098e-06 -3.41221e-06 -3.41091e-06 5.99207e-08 6.08873e-08 -3.41091e-06 -3.40984e-06 6.08873e-08 6.17768e-08 5.99207e-08 6.08873e-08 8.1098e-06 8.11104e-06 6.08873e-08 6.17768e-08 8.11104e-06 8.11214e-06 8.10659e-06 8.10825e-06 7.00473e-06 7.00662e-06 8.10825e-06 8.1098e-06 7.00662e-06 7.00861e-06 7.00473e-06 7.00662e-06 -2.31042e-05 -2.31017e-05 7.00662e-06 7.00861e-06 -2.31017e-05 -2.30993e-05 8.1098e-06 8.11104e-06 7.00861e-06 7.01031e-06 8.11104e-06 8.11214e-06 7.01031e-06 7.01186e-06 7.00861e-06 7.01031e-06 -2.30993e-05 -2.3097e-05 7.01031e-06 7.01186e-06 -2.3097e-05 -2.30948e-05 -3.40984e-06 -3.4087e-06 6.17768e-08 6.27076e-08 -3.4087e-06 -3.40774e-06 6.27076e-08 6.34854e-08 6.17768e-08 6.27076e-08 8.11214e-06 8.11319e-06 6.27076e-08 6.34854e-08 8.11319e-06 8.11408e-06 -3.40774e-06 -3.40714e-06 6.34854e-08 6.3974e-08 -3.40714e-06 -3.40693e-06 6.3974e-08 6.41382e-08 6.34854e-08 6.3974e-08 8.11408e-06 8.11465e-06 6.3974e-08 6.41382e-08 8.11465e-06 8.11485e-06 8.11214e-06 8.11319e-06 7.01186e-06 7.01333e-06 8.11319e-06 8.11408e-06 7.01333e-06 7.01457e-06 7.01186e-06 7.01333e-06 -2.30948e-05 -2.30926e-05 7.01333e-06 7.01457e-06 -2.30926e-05 -2.30908e-05 8.11408e-06 8.11465e-06 7.01457e-06 7.0154e-06 8.11465e-06 8.11485e-06 7.0154e-06 7.01569e-06 7.01457e-06 7.0154e-06 -2.30908e-05 -2.30896e-05 7.0154e-06 7.01569e-06 -2.30896e-05 -2.30891e-05 -2.31042e-05 -2.31017e-05 -8.8275e-05 -8.82721e-05 -2.31017e-05 -2.30993e-05 -8.82721e-05 -8.82692e-05 -8.8275e-05 -8.82721e-05 -0.000178947 -0.000178944 -8.82721e-05 -8.82692e-05 -0.000178944 -0.00017894 -2.30993e-05 -2.3097e-05 -8.82692e-05 -8.82662e-05 -2.3097e-05 -2.30948e-05 -8.82662e-05 -8.82631e-05 -8.82692e-05 -8.82662e-05 -0.00017894 -0.000178937 -8.82662e-05 -8.82631e-05 -0.000178937 -0.000178933 -0.000178947 -0.000178944 -0.000282403 -0.000282399 -0.000178944 -0.00017894 -0.000282399 -0.000282395 -0.000282403 -0.000282399 -0.000390616 -0.000390611 -0.000282399 -0.000282395 -0.000390611 -0.000390607 -0.00017894 -0.000178937 -0.000282395 -0.00028239 -0.000178937 -0.000178933 -0.00028239 -0.000282386 -0.000282395 -0.00028239 -0.000390607 -0.000390601 -0.00028239 -0.000282386 -0.000390601 -0.000390596 -2.30948e-05 -2.30926e-05 -8.82631e-05 -8.82602e-05 -2.30926e-05 -2.30908e-05 -8.82602e-05 -8.82576e-05 -8.82631e-05 -8.82602e-05 -0.000178933 -0.000178929 -8.82602e-05 -8.82576e-05 -0.000178929 -0.000178925 -2.30908e-05 -2.30896e-05 -8.82576e-05 -8.82557e-05 -2.30896e-05 -2.30891e-05 -8.82557e-05 -8.82546e-05 -8.82576e-05 -8.82557e-05 -0.000178925 -0.000178922 -8.82557e-05 -8.82546e-05 -0.000178922 -0.00017892 -0.000178933 -0.000178929 -0.000282386 -0.000282381 -0.000178929 -0.000178925 -0.000282381 -0.000282376 -0.000282386 -0.000282381 -0.000390596 -0.00039059 -0.000282381 -0.000282376 -0.00039059 -0.000390584 -0.000178925 -0.000178922 -0.000282376 -0.000282372 -0.000178922 -0.00017892 -0.000282372 -0.000282368 -0.000282376 -0.000282372 -0.000390584 -0.000390578 -0.000282372 -0.000282368 -0.000390578 -0.000390573 -0.000390634 -0.000390633 -0.000500224 -0.000500223 -0.000390633 -0.000390632 -0.000500223 -0.000500222 -0.000500224 -0.000500223 -0.000610108 -0.000610106 -0.000500223 -0.000500222 -0.000610106 -0.000610105 -0.000390632 -0.00039063 -0.000500222 -0.00050022 -0.00039063 -0.000390628 -0.00050022 -0.000500218 -0.000500222 -0.00050022 -0.000610105 -0.000610103 -0.00050022 -0.000500218 -0.000610103 -0.000610101 -0.000610108 -0.000610106 -0.00072006 -0.000720059 -0.000610106 -0.000610105 -0.000720059 -0.000720057 -0.00072006 -0.000720059 -0.000830023 -0.000830021 -0.000720059 -0.000720057 -0.000830021 -0.00083002 -0.000610105 -0.000610103 -0.000720057 -0.000720055 -0.000610103 -0.000610101 -0.000720055 -0.000720053 -0.000720057 -0.000720055 -0.00083002 -0.000830018 -0.000720055 -0.000720053 -0.000830018 -0.000830017 -0