# vtk DataFile Version 3.0
#This file was generated by the deal.II library on 2022/11/16 at 21:26:05
ASCII
DATASET UNSTRUCTURED_GRID

POINTS 4096 double
0 0.5 0
0.03125 0.5 0
0 0.53125 0
0.03125 0.53125 0
0.03125 0.5 0
0.0625 0.5 0
0.03125 0.53125 0
0.0625 0.53125 0
0 0.53125 0
0.03125 0.53125 0
0 0.5625 0
0.03125 0.5625 0
0.03125 0.53125 0
0.0625 0.53125 0
0.03125 0.5625 0
0.0625 0.5625 0
0.0625 0.5 0
0.09375 0.5 0
0.0625 0.53125 0
0.09375 0.53125 0
0.09375 0.5 0
0.125 0.5 0
0.09375 0.53125 0
0.125 0.53125 0
0.0625 0.53125 0
0.09375 0.53125 0
0.0625 0.5625 0
0.09375 0.5625 0
0.09375 0.53125 0
0.125 0.53125 0
0.09375 0.5625 0
0.125 0.5625 0
0 0.5625 0
0.03125 0.5625 0
0 0.59375 0
0.03125 0.59375 0
0.03125 0.5625 0
0.0625 0.5625 0
0.03125 0.59375 0
0.0625 0.59375 0
0 0.59375 0
0.03125 0.59375 0
0 0.625 0
0.03125 0.625 0
0.03125 0.59375 0
0.0625 0.59375 0
0.03125 0.625 0
0.0625 0.625 0
0.0625 0.5625 0
0.09375 0.5625 0
0.0625 0.59375 0
0.09375 0.59375 0
0.09375 0.5625 0
0.125 0.5625 0
0.09375 0.59375 0
0.125 0.59375 0
0.0625 0.59375 0
0.09375 0.59375 0
0.0625 0.625 0
0.09375 0.625 0
0.09375 0.59375 0
0.125 0.59375 0
0.09375 0.625 0
0.125 0.625 0
0.125 0.5 0
0.15625 0.5 0
0.125 0.53125 0
0.15625 0.53125 0
0.15625 0.5 0
0.1875 0.5 0
0.15625 0.53125 0
0.1875 0.53125 0
0.125 0.53125 0
0.15625 0.53125 0
0.125 0.5625 0
0.15625 0.5625 0
0.15625 0.53125 0
0.1875 0.53125 0
0.15625 0.5625 0
0.1875 0.5625 0
0.1875 0.5 0
0.21875 0.5 0
0.1875 0.53125 0
0.21875 0.53125 0
0.21875 0.5 0
0.25 0.5 0
0.21875 0.53125 0
0.25 0.53125 0
0.1875 0.53125 0
0.21875 0.53125 0
0.1875 0.5625 0
0.21875 0.5625 0
0.21875 0.53125 0
0.25 0.53125 0
0.21875 0.5625 0
0.25 0.5625 0
0.125 0.5625 0
0.15625 0.5625 0
0.125 0.59375 0
0.15625 0.59375 0
0.15625 0.5625 0
0.1875 0.5625 0
0.15625 0.59375 0
0.1875 0.59375 0
0.125 0.59375 0
0.15625 0.59375 0
0.125 0.625 0
0.15625 0.625 0
0.15625 0.59375 0
0.1875 0.59375 0
0.15625 0.625 0
0.1875 0.625 0
0.1875 0.5625 0
0.21875 0.5625 0
0.1875 0.59375 0
0.21875 0.59375 0
0.21875 0.5625 0
0.25 0.5625 0
0.21875 0.59375 0
0.25 0.59375 0
0.1875 0.59375 0
0.21875 0.59375 0
0.1875 0.625 0
0.21875 0.625 0
0.21875 0.59375 0
0.25 0.59375 0
0.21875 0.625 0
0.25 0.625 0
0 0.625 0
0.03125 0.625 0
0 0.65625 0
0.03125 0.65625 0
0.03125 0.625 0
0.0625 0.625 0
0.03125 0.65625 0
0.0625 0.65625 0
0 0.65625 0
0.03125 0.65625 0
0 0.6875 0
0.03125 0.6875 0
0.03125 0.65625 0
0.0625 0.65625 0
0.03125 0.6875 0
0.0625 0.6875 0
0.0625 0.625 0
0.09375 0.625 0
0.0625 0.65625 0
0.09375 0.65625 0
0.09375 0.625 0
0.125 0.625 0
0.09375 0.65625 0
0.125 0.65625 0
0.0625 0.65625 0
0.09375 0.65625 0
0.0625 0.6875 0
0.09375 0.6875 0
0.09375 0.65625 0
0.125 0.65625 0
0.09375 0.6875 0
0.125 0.6875 0
0 0.6875 0
0.03125 0.6875 0
0 0.71875 0
0.03125 0.71875 0
0.03125 0.6875 0
0.0625 0.6875 0
0.03125 0.71875 0
0.0625 0.71875 0
0 0.71875 0
0.03125 0.71875 0
0 0.75 0
0.03125 0.75 0
0.03125 0.71875 0
0.0625 0.71875 0
0.03125 0.75 0
0.0625 0.75 0
0.0625 0.6875 0
0.09375 0.6875 0
0.0625 0.71875 0
0.09375 0.71875 0
0.09375 0.6875 0
0.125 0.6875 0
0.09375 0.71875 0
0.125 0.71875 0
0.0625 0.71875 0
0.09375 0.71875 0
0.0625 0.75 0
0.09375 0.75 0
0.09375 0.71875 0
0.125 0.71875 0
0.09375 0.75 0
0.125 0.75 0
0.125 0.625 0
0.15625 0.625 0
0.125 0.65625 0
0.15625 0.65625 0
0.15625 0.625 0
0.1875 0.625 0
0.15625 0.65625 0
0.1875 0.65625 0
0.125 0.65625 0
0.15625 0.65625 0
0.125 0.6875 0
0.15625 0.6875 0
0.15625 0.65625 0
0.1875 0.65625 0
0.15625 0.6875 0
0.1875 0.6875 0
0.1875 0.625 0
0.21875 0.625 0
0.1875 0.65625 0
0.21875 0.65625 0
0.21875 0.625 0
0.25 0.625 0
0.21875 0.65625 0
0.25 0.65625 0
0.1875 0.65625 0
0.21875 0.65625 0
0.1875 0.6875 0
0.21875 0.6875 0
0.21875 0.65625 0
0.25 0.65625 0
0.21875 0.6875 0
0.25 0.6875 0
0.125 0.6875 0
0.15625 0.6875 0
0.125 0.71875 0
0.15625 0.71875 0
0.15625 0.6875 0
0.1875 0.6875 0
0.15625 0.71875 0
0.1875 0.71875 0
0.125 0.71875 0
0.15625 0.71875 0
0.125 0.75 0
0.15625 0.75 0
0.15625 0.71875 0
0.1875 0.71875 0
0.15625 0.75 0
0.1875 0.75 0
0.1875 0.6875 0
0.21875 0.6875 0
0.1875 0.71875 0
0.21875 0.71875 0
0.21875 0.6875 0
0.25 0.6875 0
0.21875 0.71875 0
0.25 0.71875 0
0.1875 0.71875 0
0.21875 0.71875 0
0.1875 0.75 0
0.21875 0.75 0
0.21875 0.71875 0
0.25 0.71875 0
0.21875 0.75 0
0.25 0.75 0
0.25 0.5 0
0.28125 0.5 0
0.25 0.53125 0
0.28125 0.53125 0
0.28125 0.5 0
0.3125 0.5 0
0.28125 0.53125 0
0.3125 0.53125 0
0.25 0.53125 0
0.28125 0.53125 0
0.25 0.5625 0
0.28125 0.5625 0
0.28125 0.53125 0
0.3125 0.53125 0
0.28125 0.5625 0
0.3125 0.5625 0
0.3125 0.5 0
0.34375 0.5 0
0.3125 0.53125 0
0.34375 0.53125 0
0.34375 0.5 0
0.375 0.5 0
0.34375 0.53125 0
0.375 0.53125 0
0.3125 0.53125 0
0.34375 0.53125 0
0.3125 0.5625 0
0.34375 0.5625 0
0.34375 0.53125 0
0.375 0.53125 0
0.34375 0.5625 0
0.375 0.5625 0
0.25 0.5625 0
0.28125 0.5625 0
0.25 0.59375 0
0.28125 0.59375 0
0.28125 0.5625 0
0.3125 0.5625 0
0.28125 0.59375 0
0.3125 0.59375 0
0.25 0.59375 0
0.28125 0.59375 0
0.25 0.625 0
0.28125 0.625 0
0.28125 0.59375 0
0.3125 0.59375 0
0.28125 0.625 0
0.3125 0.625 0
0.3125 0.5625 0
0.34375 0.5625 0
0.3125 0.59375 0
0.34375 0.59375 0
0.34375 0.5625 0
0.375 0.5625 0
0.34375 0.59375 0
0.375 0.59375 0
0.3125 0.59375 0
0.34375 0.59375 0
0.3125 0.625 0
0.34375 0.625 0
0.34375 0.59375 0
0.375 0.59375 0
0.34375 0.625 0
0.375 0.625 0
0.375 0.5 0
0.40625 0.5 0
0.375 0.53125 0
0.40625 0.53125 0
0.40625 0.5 0
0.4375 0.5 0
0.40625 0.53125 0
0.4375 0.53125 0
0.375 0.53125 0
0.40625 0.53125 0
0.375 0.5625 0
0.40625 0.5625 0
0.40625 0.53125 0
0.4375 0.53125 0
0.40625 0.5625 0
0.4375 0.5625 0
0.4375 0.5 0
0.46875 0.5 0
0.4375 0.53125 0
0.46875 0.53125 0
0.46875 0.5 0
0.5 0.5 0
0.46875 0.53125 0
0.5 0.53125 0
0.4375 0.53125 0
0.46875 0.53125 0
0.4375 0.5625 0
0.46875 0.5625 0
0.46875 0.53125 0
0.5 0.53125 0
0.46875 0.5625 0
0.5 0.5625 0
0.375 0.5625 0
0.40625 0.5625 0
0.375 0.59375 0
0.40625 0.59375 0
0.40625 0.5625 0
0.4375 0.5625 0
0.40625 0.59375 0
0.4375 0.59375 0
0.375 0.59375 0
0.40625 0.59375 0
0.375 0.625 0
0.40625 0.625 0
0.40625 0.59375 0
0.4375 0.59375 0
0.40625 0.625 0
0.4375 0.625 0
0.4375 0.5625 0
0.46875 0.5625 0
0.4375 0.59375 0
0.46875 0.59375 0
0.46875 0.5625 0
0.5 0.5625 0
0.46875 0.59375 0
0.5 0.59375 0
0.4375 0.59375 0
0.46875 0.59375 0
0.4375 0.625 0
0.46875 0.625 0
0.46875 0.59375 0
0.5 0.59375 0
0.46875 0.625 0
0.5 0.625 0
0.25 0.625 0
0.28125 0.625 0
0.25 0.65625 0
0.28125 0.65625 0
0.28125 0.625 0
0.3125 0.625 0
0.28125 0.65625 0
0.3125 0.65625 0
0.25 0.65625 0
0.28125 0.65625 0
0.25 0.6875 0
0.28125 0.6875 0
0.28125 0.65625 0
0.3125 0.65625 0
0.28125 0.6875 0
0.3125 0.6875 0
0.3125 0.625 0
0.34375 0.625 0
0.3125 0.65625 0
0.34375 0.65625 0
0.34375 0.625 0
0.375 0.625 0
0.34375 0.65625 0
0.375 0.65625 0
0.3125 0.65625 0
0.34375 0.65625 0
0.3125 0.6875 0
0.34375 0.6875 0
0.34375 0.65625 0
0.375 0.65625 0
0.34375 0.6875 0
0.375 0.6875 0
0.25 0.6875 0
0.28125 0.6875 0
0.25 0.71875 0
0.28125 0.71875 0
0.28125 0.6875 0
0.3125 0.6875 0
0.28125 0.71875 0
0.3125 0.71875 0
0.25 0.71875 0
0.28125 0.71875 0
0.25 0.75 0
0.28125 0.75 0
0.28125 0.71875 0
0.3125 0.71875 0
0.28125 0.75 0
0.3125 0.75 0
0.3125 0.6875 0
0.34375 0.6875 0
0.3125 0.71875 0
0.34375 0.71875 0
0.34375 0.6875 0
0.375 0.6875 0
0.34375 0.71875 0
0.375 0.71875 0
0.3125 0.71875 0
0.34375 0.71875 0
0.3125 0.75 0
0.34375 0.75 0
0.34375 0.71875 0
0.375 0.71875 0
0.34375 0.75 0
0.375 0.75 0
0.375 0.625 0
0.40625 0.625 0
0.375 0.65625 0
0.40625 0.65625 0
0.40625 0.625 0
0.4375 0.625 0
0.40625 0.65625 0
0.4375 0.65625 0
0.375 0.65625 0
0.40625 0.65625 0
0.375 0.6875 0
0.40625 0.6875 0
0.40625 0.65625 0
0.4375 0.65625 0
0.40625 0.6875 0
0.4375 0.6875 0
0.4375 0.625 0
0.46875 0.625 0
0.4375 0.65625 0
0.46875 0.65625 0
0.46875 0.625 0
0.5 0.625 0
0.46875 0.65625 0
0.5 0.65625 0
0.4375 0.65625 0
0.46875 0.65625 0
0.4375 0.6875 0
0.46875 0.6875 0
0.46875 0.65625 0
0.5 0.65625 0
0.46875 0.6875 0
0.5 0.6875 0
0.375 0.6875 0
0.40625 0.6875 0
0.375 0.71875 0
0.40625 0.71875 0
0.40625 0.6875 0
0.4375 0.6875 0
0.40625 0.71875 0
0.4375 0.71875 0
0.375 0.71875 0
0.40625 0.71875 0
0.375 0.75 0
0.40625 0.75 0
0.40625 0.71875 0
0.4375 0.71875 0
0.40625 0.75 0
0.4375 0.75 0
0.4375 0.6875 0
0.46875 0.6875 0
0.4375 0.71875 0
0.46875 0.71875 0
0.46875 0.6875 0
0.5 0.6875 0
0.46875 0.71875 0
0.5 0.71875 0
0.4375 0.71875 0
0.46875 0.71875 0
0.4375 0.75 0
0.46875 0.75 0
0.46875 0.71875 0
0.5 0.71875 0
0.46875 0.75 0
0.5 0.75 0
0 0.75 0
0.03125 0.75 0
0 0.78125 0
0.03125 0.78125 0
0.03125 0.75 0
0.0625 0.75 0
0.03125 0.78125 0
0.0625 0.78125 0
0 0.78125 0
0.03125 0.78125 0
0 0.8125 0
0.03125 0.8125 0
0.03125 0.78125 0
0.0625 0.78125 0
0.03125 0.8125 0
0.0625 0.8125 0
0.0625 0.75 0
0.09375 0.75 0
0.0625 0.78125 0
0.09375 0.78125 0
0.09375 0.75 0
0.125 0.75 0
0.09375 0.78125 0
0.125 0.78125 0
0.0625 0.78125 0
0.09375 0.78125 0
0.0625 0.8125 0
0.09375 0.8125 0
0.09375 0.78125 0
0.125 0.78125 0
0.09375 0.8125 0
0.125 0.8125 0
0 0.8125 0
0.03125 0.8125 0
0 0.84375 0
0.03125 0.84375 0
0.03125 0.8125 0
0.0625 0.8125 0
0.03125 0.84375 0
0.0625 0.84375 0
0 0.84375 0
0.03125 0.84375 0
0 0.875 0
0.03125 0.875 0
0.03125 0.84375 0
0.0625 0.84375 0
0.03125 0.875 0
0.0625 0.875 0
0.0625 0.8125 0
0.09375 0.8125 0
0.0625 0.84375 0
0.09375 0.84375 0
0.09375 0.8125 0
0.125 0.8125 0
0.09375 0.84375 0
0.125 0.84375 0
0.0625 0.84375 0
0.09375 0.84375 0
0.0625 0.875 0
0.09375 0.875 0
0.09375 0.84375 0
0.125 0.84375 0
0.09375 0.875 0
0.125 0.875 0
0.125 0.75 0
0.15625 0.75 0
0.125 0.78125 0
0.15625 0.78125 0
0.15625 0.75 0
0.1875 0.75 0
0.15625 0.78125 0
0.1875 0.78125 0
0.125 0.78125 0
0.15625 0.78125 0
0.125 0.8125 0
0.15625 0.8125 0
0.15625 0.78125 0
0.1875 0.78125 0
0.15625 0.8125 0
0.1875 0.8125 0
0.1875 0.75 0
0.21875 0.75 0
0.1875 0.78125 0
0.21875 0.78125 0
0.21875 0.75 0
0.25 0.75 0
0.21875 0.78125 0
0.25 0.78125 0
0.1875 0.78125 0
0.21875 0.78125 0
0.1875 0.8125 0
0.21875 0.8125 0
0.21875 0.78125 0
0.25 0.78125 0
0.21875 0.8125 0
0.25 0.8125 0
0.125 0.8125 0
0.15625 0.8125 0
0.125 0.84375 0
0.15625 0.84375 0
0.15625 0.8125 0
[...]
POINT_DATA 4096
SCALARS x_dis double 1
LOOKUP_TABLE default
-9.47062e-07 -9.46988e-07 -1.61857e-06 -1.61845e-06 -9.46988e-07 -9.46773e-07 -1.61845e-06 -1.61812e-06 -1.61857e-06 -1.61845e-06 4.43127e-06 4.43145e-06 -1.61845e-06 -1.61812e-06 4.43145e-06 4.43196e-06 -9.46773e-07 -9.46439e-07 -1.61812e-06 -1.6176e-06 -9.46439e-07 -9.46017e-07 -1.6176e-06 -1.61695e-06 -1.61812e-06 -1.6176e-06 4.43196e-06 4.43274e-06 -1.6176e-06 -1.61695e-06 4.43274e-06 4.43371e-06 4.43127e-06 4.43145e-06 9.88548e-06 9.88575e-06 4.43145e-06 4.43196e-06 9.88575e-06 9.88651e-06 9.88548e-06 9.88575e-06 -7.30644e-06 -7.30603e-06 9.88575e-06 9.88651e-06 -7.30603e-06 -7.30491e-06 4.43196e-06 4.43274e-06 9.88651e-06 9.88766e-06 4.43274e-06 4.43371e-06 9.88766e-06 9.88906e-06 9.88651e-06 9.88766e-06 -7.30491e-06 -7.30328e-06 9.88766e-06 9.88906e-06 -7.30328e-06 -7.30133e-06 -9.46017e-07 -9.45541e-07 -1.61695e-06 -1.61623e-06 -9.45541e-07 -9.4505e-07 -1.61623e-06 -1.61549e-06 -1.61695e-06 -1.61623e-06 4.43371e-06 4.43478e-06 -1.61623e-06 -1.61549e-06 4.43478e-06 4.43586e-06 -9.4505e-07 -9.44576e-07 -1.61549e-06 -1.61478e-06 -9.44576e-07 -9.44144e-07 -1.61478e-06 -1.6141e-06 -1.61549e-06 -1.61478e-06 4.43586e-06 4.43689e-06 -1.61478e-06 -1.6141e-06 4.43689e-06 4.43787e-06 4.43371e-06 4.43478e-06 9.88906e-06 9.8906e-06 4.43478e-06 4.43586e-06 9.8906e-06 9.89213e-06 9.88906e-06 9.8906e-06 -7.30133e-06 -7.29921e-06 9.8906e-06 9.89213e-06 -7.29921e-06 -7.29711e-06 4.43586e-06 4.43689e-06 9.89213e-06 9.89358e-06 4.43689e-06 4.43787e-06 9.89358e-06 9.89493e-06 9.89213e-06 9.89358e-06 -7.29711e-06 -7.29513e-06 9.89358e-06 9.89493e-06 -7.29513e-06 -7.29332e-06 -7.30644e-06 -7.30603e-06 -6.02734e-05 -6.02726e-05 -7.30603e-06 -7.30491e-06 -6.02726e-05 -6.02709e-05 -6.02734e-05 -6.02726e-05 -0.000143475 -0.000143474 -6.02726e-05 -6.02709e-05 -0.000143474 -0.000143471 -7.30491e-06 -7.30328e-06 -6.02709e-05 -6.02686e-05 -7.30328e-06 -7.30133e-06 -6.02686e-05 -6.0266e-05 -6.02709e-05 -6.02686e-05 -0.000143471 -0.000143468 -6.02686e-05 -6.0266e-05 -0.000143468 -0.000143464 -0.000143475 -0.000143474 -0.000243777 -0.000243773 -0.000143474 -0.000143471 -0.000243773 -0.00024377 -0.000243777 -0.000243773 -0.000350994 -0.000350989 -0.000243773 -0.00024377 -0.000350989 -0.000350984 -0.000143471 -0.000143468 -0.00024377 -0.000243765 -0.000143468 -0.000143464 -0.000243765 -0.000243761 -0.00024377 -0.000243765 -0.000350984 -0.000350978 -0.000243765 -0.000243761 -0.000350978 -0.000350973 -7.30133e-06 -7.29921e-06 -6.0266e-05 -6.02632e-05 -7.29921e-06 -7.29711e-06 -6.02632e-05 -6.02604e-05 -6.0266e-05 -6.02632e-05 -0.000143464 -0.000143461 -6.02632e-05 -6.02604e-05 -0.000143461 -0.000143457 -7.29711e-06 -7.29513e-06 -6.02604e-05 -6.02578e-05 -7.29513e-06 -7.29332e-06 -6.02578e-05 -6.02554e-05 -6.02604e-05 -6.02578e-05 -0.000143457 -0.000143454 -6.02578e-05 -6.02554e-05 -0.000143454 -0.000143451 -0.000143464 -0.000143461 -0.000243761 -0.000243756 -0.000143461 -0.000143457 -0.000243756 -0.000243752 -0.000243761 -0.000243756 -0.000350973 -0.000350968 -0.000243756 -0.000243752 -0.000350968 -0.000350963 -0.000143457 -0.000143454 -0.000243752 -0.000243748 -0.000143454 -0.000143451 -0.000243748 -0.000243745 -0.000243752 -0.000243748 -0.000350963 -0.000350958 -0.000243748 -0.000243745 -0.000350958 -0.000350954 -9.44144e-07 -9.43762e-07 -1.6141e-06 -1.61341e-06 -9.43762e-07 -9.43436e-07 -1.61341e-06 -1.61278e-06 -1.6141e-06 -1.61341e-06 4.43787e-06 4.43885e-06 -1.61341e-06 -1.61278e-06 4.43885e-06 4.43973e-06 -9.43436e-07 -9.43207e-07 -1.61278e-06 -1.6129e-06 -9.43207e-07 -9.43097e-07 -1.6129e-06 -1.61484e-06 -1.61278e-06 -1.6129e-06 4.43973e-06 4.43982e-06 -1.6129e-06 -1.61484e-06 4.43982e-06 4.43819e-06 4.43787e-06 4.43885e-06 9.89493e-06 9.89623e-06 4.43885e-06 4.43973e-06 9.89623e-06 9.89734e-06 9.89493e-06 9.89623e-06 -7.29332e-06 -7.29168e-06 9.89623e-06 9.89734e-06 -7.29168e-06 -7.29022e-06 4.43973e-06 4.43982e-06 9.89734e-06 9.89782e-06 4.43982e-06 4.43819e-06 9.89782e-06 9.89734e-06 9.89734e-06 9.89782e-06 -7.29022e-06 -7.28923e-06 9.89782e-06 9.89734e-06 -7.28923e-06 -7.28912e-06 -9.43097e-07 -9.42899e-07 -1.61484e-06 -1.61496e-06 -9.42899e-07 -9.42476e-07 -1.61496e-06 -1.60069e-06 -1.61484e-06 -1.61496e-06 4.43819e-06 4.43711e-06 -1.61496e-06 -1.60069e-06 4.43711e-06 4.44274e-06 -9.42476e-07 -9.43023e-07 -1.60069e-06 -1.56432e-06 -9.43023e-07 -9.44807e-07 -1.56432e-06 -1.5492e-06 -1.60069e-06 -1.56432e-06 4.44274e-06 4.45347e-06 -1.56432e-06 -1.5492e-06 4.45347e-06 4.4992e-06 4.43819e-06 4.43711e-06 9.89734e-06 9.89722e-06 4.43711e-06 4.44274e-06 9.89722e-06 9.89812e-06 9.89734e-06 9.89722e-06 -7.28912e-06 -7.28949e-06 9.89722e-06 9.89812e-06 -7.28949e-06 -7.28816e-06 4.44274e-06 4.45347e-06 9.89812e-06 9.89646e-06 4.45347e-06 4.4992e-06 9.89646e-06 9.87346e-06 9.89812e-06 9.89646e-06 -7.28816e-06 -7.28609e-06 9.89646e-06 9.87346e-06 -7.28609e-06 -7.28575e-06 -7.29332e-06 -7.29168e-06 -6.02554e-05 -6.02534e-05 -7.29168e-06 -7.29022e-06 -6.02534e-05 -6.02516e-05 -6.02554e-05 -6.02534e-05 -0.000143451 -0.000143448 -6.02534e-05 -6.02516e-05 -0.000143448 -0.000143446 -7.29022e-06 -7.28923e-06 -6.02516e-05 -6.02501e-05 -7.28923e-06 -7.28912e-06 -6.02501e-05 -6.02491e-05 -6.02516e-05 -6.02501e-05 -0.000143446 -0.000143445 -6.02501e-05 -6.02491e-05 -0.000143445 -0.000143443 -0.000143451 -0.000143448 -0.000243745 -0.000243742 -0.000143448 -0.000143446 -0.000243742 -0.000243739 -0.000243745 -0.000243742 -0.000350954 -0.00035095 -0.000243742 -0.000243739 -0.00035095 -0.000350947 -0.000143446 -0.000143445 -0.000243739 -0.000243737 -0.000143445 -0.000143443 -0.000243737 -0.000243735 -0.000243739 -0.000243737 -0.000350947 -0.000350945 -0.000243737 -0.000243735 -0.000350945 -0.000350943 -7.28912e-06 -7.28949e-06 -6.02491e-05 -6.02492e-05 -7.28949e-06 -7.28816e-06 -6.02492e-05 -6.02499e-05 -6.02491e-05 -6.02492e-05 -0.000143443 -0.000143442 -6.02492e-05 -6.02499e-05 -0.000143442 -0.000143442 -7.28816e-06 -7.28609e-06 -6.02499e-05 -6.02488e-05 -7.28609e-06 -7.28575e-06 -6.02488e-05 -6.02437e-05 -6.02499e-05 -6.02488e-05 -0.000143442 -0.000143442 -6.02488e-05 -6.02437e-05 -0.000143442 -0.000143442 -0.000143443 -0.000143442 -0.000243735 -0.000243734 -0.000143442 -0.000143442 -0.000243734 -0.000243733 -0.000243735 -0.000243734 -0.000350943 -0.000350942 -0.000243734 -0.000243733 -0.000350942 -0.000350941 -0.000143442 -0.000143442 -0.000243733 -0.000243732 -0.000143442 -0.000143442 -0.000243732 -0.000243731 -0.000243733 -0.000243732 -0.000350941 -0.00035094 -0.000243732 -0.000243731 -0.00035094 -0.000350939 -0.000350994 -0.000350989 -0.000460351 -0.000460345 -0.000350989 -0.000350984 -0.000460345 -0.000460338 -0.000460351 -0.000460345 -0.000570197 -0.000570188 -0.000460345 -0.000460338 -0.000570188 -0.00057018 -0.000350984 -0.000350978 -0.000460338 -0.000460331 -0.000350978 -0.000350973 -0.000460331 -0.000460324 -0.000460338 -0.000460331 -0.00057018 -0.000570172 -0.000460331 -0.000460324 -0.000570172 -0.000570164 -0.000570197 -0.000570188 -0.000680147 -0.000680136 -0.000570188 -0.00057018 -0.000680136 -0.000680125 -0.000680147 -0.000680136 -0.000790112 -0.000790098 -0.000680136 -0.000680125 -0.000790098 -0.000790086 -0.00057018 -0.000570172 -0.000680125 -0.000680116 -0.000570172 -0.000570164 -0.000680116 -0.000680108 -0.000680125 -0.000680116 -0.000790086 -0.000790076 -0.000680116 -0.000680108 -0.000790076 -0.000790067 -0.000350973 -0.000350968 -0.000460324 -0.000460318 -0.000350968 -0.000350963 -0.000460318 -0.000460313 -0.000460324 -0.000460318 -0.000570164 -0.000570157 -0.000460318 -0.000460313 -0.000570157 -0.000570151 -0.000350963 -0.000350958 -0.000460313 -0.000460308 -0.000350958 -0.000350954 -0.000460308 -0.000460303 -0.000460313 -0.000460308 -0.000570151 -0.000570146 -0.000460308 -0.000460303 -0.000570146 -0.000570142 -0.000570164 -0.000570157 -0.000680108 -0.000680101 -0.000570157 -0.000570151 -0.000680101 -0.000680095 -0.000680108 -0.000680101 -0.000790067 -0.00079006 -0.000680101 -0.000680095 -0.00079006 -0.000790054 -0.000570151 -0.000570146 -0.000680095 -0.000680089 -0.000570146 -0.000570142 -0.000680089 -0.000680085 -0.000680095 -0.000680089 -0.000790054 -0.000790049 -0.000680089 -0.000680085 -0.000790049 -0.000790045 -0.000790112 -0.000790098 -0.000900087 -0.00090007 -0.000790098 -0.000790086 -0.00090007 -0.000900057 -0.000900087 -0.00090007 -0.00101007 -0.00101005 -0.00090007 -0.000900057 -0.00101005 -0.00101003 -0.000790086 -0.000790076 -0.000900057 -0.000900046 -0.000790076 -0.000790067 -0.000900046 -0.000900038 -0.000900057 -0.000900046 -0.00101003 -0.00101002 -0.000900046 -0.000900038 -0.00101002 -0.00101002 -0.00101007 -0.00101005 -0.00112005 -0.00112002 -0.00101005 -0.00101003 -0.00112002 -0.00112001 -0.00112005 -0.00112002 -0.00123 -0.00123 -0.00112002 -0.00112001 -0.00123 -0.00123 -0.00101003 -0.00101002 -0.00112001 -0.00112001 -0.00101002 -0.00101002 -0.00112001 -0.00112 -0.00112001 -0.00112001 -0.00123 -0.00123 -0.00112001 -0.00112 -0.00123 -0.00123 -0.000790067 -0.00079006 -0.000900038 -0.000900032 -0.00079006 -0.000790054 -0.000900032 -0.000900027 -0.000900038 -0.000900032 -0.00101002 -0.00101001 -0.000900032 -0.000900027 -0.00101001 -0.00101001 -0.000790054 -0.000790049 -0.000900027 -0.000900023 -0.000790049 -0.000790045 -0.000900023 -0.00090002 -0.000900027 -0.000900023 -0.00101001 -0.00101001 -0.000900023 -0.00090002 -0.00101001 -0.00101 -0.00101002 -0.00101001 -0.00112 -0.00112 -0.00101001 -0.00101001 -0.00112 -0.00112 -0.00112 -0.00112 -0.00123 -0.00123 -0.00112 -0.00112 -0.00123 -0.00123 -0.00101001 -0.00101001 -0.00112 -0.00112 -0.00101001 -0.00101 -0.00112 -0.00112 -0.00112 -0.00112 -0.00123 -0.00123 -0.00112 -0.00112 -0.00123 -0.00123 -0.000350954 -0.00035095 -0.000460303 -0.000460299 -0.00035095 -0.000350947 -0.000460299 -0.000460296 -0.000460303 -0.000460299 -0.000570142 -0.000570138 -0.000460299 -0.000460296 -0.000570138 -0.000570134 -0.000350947 -0.000350945 -0.000460296 -0.000460294 -0.000350945 -0.000350943 -0.000460294 -0.000460292 -0.000460296 -0.000460294 -0.000570134 -0.000570132 -0.000460294 -0.000460292 -0.000570132 -0.00057013 -0.000570142 -0.000570138 -0.000680085 -0.000680081 -0.000570138 -0.000570134 -0.000680081 -0.000680078 -0.000680085 -0.000680081 -0.000790045 -0.000790042 -0.000680081 -0.000680078 -0.000790042 -0.000790039 -0.000570134 -0.000570132 -0.000680078 -0.000680075 -0.000570132 -0.00057013 -0.000680075 -0.000680073 -0.000680078 -0.000680075 -0.000790039 -0.000790037 -0.000680075 -0.000680073 -0.000790037 -0.000790035 -0.000350943 -0.000350942 -0.000460292 -0.00046029 -0.000350942 -0.000350941 -0.00046029 -0.000460289 -0.000460292 -0.00046029 -0.00057013 -0.000570128 -0.00046029 -0.000460289 -0.000570128 -0.000570126 -0.000350941 -0.00035094 -0.000460289 -0.000460288 -0.00035094 -0.000350939 -0.000460288 -0.000460287 -0.000460289 -0.000460288 -0.000570126 -0.000570125 -0.000460288 -0.000460287 -0.000570125 -0.000570124 -0.00057013 -0.000570128 -0.000680073 -0.000680072 -0.000570128 -0.000570126 -0.000680072 -0.00068007 -0.000680073 -0.000680072 -0.000790035 -0.000790033 -0.000680072 -0.00068007 -0.000790033 -0.000790032 -0.000570126 -0.000570125 -0.00068007 -0.000680069 -0.000570125 -0.000570124 -0.000680069 -0.000680068 -0.00068007 -0.000680069 -0.000790032 -0.000790031 -0.000680069 -0.000680068 -0.000790031 -0.00079003 -0.000790045 -0.000790042 -0.00090002 -0.000900017 -0.000790042 -0.000790039 -0.000900017 -0.000900015 -0.00090002 -0.000900017 -0.00101 -0.00101 -0.000900017 -0.000900015 -0.00101 -0.00101 -0.000790039 -0.000790037 -0.000900015 -0.000900013 -0.000790037 -0.000790035 -0.000900013 -0.000900011 -0.000900015 -0.000900013 -0.00101 -0.00101 -0.000900013 -0.000900011 -0.00101 -0.00101 -0.00101 -0.00101 -0.00112 -0.00112 -0.00101 -0.00101 -0.00112 -0.00112 -0.00112 -0.00112 -0.00123 -0.00123 -0.00112 -0.00112 -0.00123 -0.00123 -0.00101 -0.00101 -0.00112 -0.00112 -0.00101 -0.00101 -0.00112 -0.00111999 -0.00112 -0.00112 -0.00123 -0.00123 -0.00112 -0.00111999 -0.00123 -0.00123 -0.000790035 -0.000790033 -0.000900011 -0.00090001 -0.000790033 -0.000790032 -0.00090001 -0.000900009 -0.000900011 -0.00090001 -0.00101 -0.00101 -0.00090001 -0.000900009 -0.00101 -0.00101 -0.000790032 -0.000790031 -0.000900009 -0.000900008 -0.000790031 -0.00079003 -0.000900008 -0.000900007 -0.000900009 -0.000900008 -0.00101 -0.00100999 -0.000900008 -0.000900007 -0.00100999 -0.00100999 -0.00101 -0.00101 -0.00111999 -0.00111999 -0.00101 -0.00101 -0.00111999 -0.00111999 -0.00111999 -0.00111999 -0.00123 -0.00123 -0.00111999 -0.00111999 -0.00123 -0.00123 -0.00101 -0.00100999 -0.00111999 -0.00111999 -0.00100999 -0.00100999 -0.00111999 -0.00111999 -0.00111999 -0.00111999 -0.00123 -0.00123 -0.00111999 -0.00111999 -0.00123 -0.00123 -9.44807e-07 -1.927e-06 -1.5492e-06 -1.35964e-06 -1.927e-06 -2.03937e-06 -1.35964e-06 -1.28771e-06 -1.5492e-06 -1.35964e-06 4.4992e-06 4.53137e-06 -1.35964e-06 -1.28771e-06 4.53137e-06 4.55375e-06 -2.03937e-06 -1.93196e-06 -1.28771e-06 -1.21317e-06 -1.93196e-06 -1.87475e-06 -1.21317e-06 -1.17521e-06 -1.28771e-06 -1.21317e-06 4.55375e-06 4.55162e-06 -1.21317e-06 -1.17521e-06 4.55162e-06 4.55392e-06 4.4992e-06 4.53137e-06 9.87346e-06 9.83535e-06 4.53137e-06 4.55375e-06 9.83535e-06 9.80368e-06 9.87346e-06 9.83535e-06 -7.28575e-06 -7.28623e-06 9.83535e-06 9.80368e-06 -7.28623e-06 -7.28095e-06 4.55375e-06 4.55162e-06 9.80368e-06 9.79814e-06 4.55162e-06 4.55392e-06 9.79814e-06 9.80167e-06 9.80368e-06 9.79814e-06 -7.28095e-06 -7.2734e-06 9.79814e-06 9.80167e-06 -7.2734e-06 -7.27029e-06 -1.87475e-06 -1.87004e-06 -1.17521e-06 -1.17855e-06 -1.87004e-06 -1.88061e-06 -1.17855e-06 -1.18958e-06 -1.17521e-06 -1.17855e-06 4.55392e-06 4.55169e-06 -1.17855e-06 -1.18958e-06 4.55169e-06 4.54774e-06 -1.88061e-06 -1.88602e-06 -1.18958e-06 -1.19198e-06 -1.88602e-06 -1.88441e-06 -1.19198e-06 -1.18982e-06 -1.18958e-06 -1.19198e-06 4.54774e-06 4.54711e-06 -1.19198e-06 -1.18982e-06 4.54711e-06 4.54848e-06 4.55392e-06 4.55169e-06 9.80167e-06 9.80261e-06 4.55169e-06 4.54774e-06 9.80261e-06 9.80115e-06 9.80167e-06 9.80261e-06 -7.27029e-06 -7.27171e-06 9.80261e-06 9.80115e-06 -7.27171e-06 -7.27258e-06 4.54774e-06 4.54711e-06 9.80115e-06 9.80102e-06 4.54711e-06 4.54848e-06 9.80102e-06 9.80242e-06 9.80115e-06 9.80102e-06 -7.27258e-06 -7.27141e-06 9.80102e-06 9.80242e-06 -7.27141e-06 -7.26935e-06 -7.28575e-06 -7.28623e-06 -6.02437e-05 -6.02359e-05 -7.28623e-06 -7.28095e-06 -6.02359e-05 -6.02297e-05 -6.02437e-05 -6.02359e-05 -0.000143442 -0.000143443 -6.02359e-05 -6.02297e-05 -0.000143443 -0.000143444 -7.28095e-06 -7.2734e-06 -6.02297e-05 -6.02284e-05 -7.2734e-06 -7.27029e-06 -6.02284e-05 -6.02302e-05 -6.02297e-05 -6.02284e-05 -0.000143444 -0.000143445 -6.02284e-05 -6.02302e-05 -0.000143445 -0.000143445 -0.000143442 -0.000143443 -0.000243731 -0.000243731 -0.000143443 -0.000143444 -0.000243731 -0.000243731 -0.000243731 -0.000243731 -0.000350939 -0.000350938 -0.000243731 -0.000243731 -0.000350938 -0.000350936 -0.000143444 -0.000143445 -0.000243731 -0.00024373 -0.000143445 -0.000143445 -0.00024373 -0.000243728 -0.000243731 -0.00024373 -0.000350936 -0.000350935 -0.00024373 -0.000243728 -0.000350935 -0.000350934 -7.27029e-06 -7.27171e-06 -6.02302e-05 -6.02311e-05 -7.27171e-06 -7.27258e-06 -6.02311e-05 -6.02297e-05 -6.02302e-05 -6.02311e-05 -0.000143445 -0.000143443 -6.02311e-05 -6.02297e-05 -0.000143443 -0.000143441 -7.27258e-06 -7.27141e-06 -6.02297e-05 -6.02275e-05 -7.27141e-06 -7.26935e-06 -6.02275e-05 -6.02252e-05 -6.02297e-05 -6.02275e-05 -0.000143441 -0.000143439 -6.02275e-05 -6.02252e-05 -0.000143439 -0.000143436 -0.000143445 -0.000143443 -0.000243728 -0.000243726 -0.000143443 -0.000143441 -0.000243726 -0.000243724 -0.000243728 -0.000243726 -0.000350934 -0.000350932 -0.000243726 -0.000243724 -0.000350932 -0.00035093 -0.000143441 -0.000143439 -0.000243724 -0.000243721 -0.000143439 -0.000143436 -0.000243721 -0.000243718 -0.000243724 -0.000243721 -0.00035093 -0.000350927 -0.000243721 -0.000243718 -0.000350927 -0.000350923 -1.88441e-06 -1.88177e-06 -1.18982e-06 -1.18807e-06 -1.88177e-06 -1.88056e-06 -1.18807e-06 -1.18729e-06 -1.18982e-06 -1.18807e-06 4.54848e-06 4.54986e-06 -1.18807e-06 -1.18729e-06 4.54986e-06 4.5509e-06 -1.88056e-06 -1.87981e-06 -1.18729e-06 -1.18666e-06 -1.87981e-06 -1.87886e-06 -1.18666e-06 -1.18588e-06 -1.18729e-06 -1.18666e-06 4.5509e-06 4.5518e-06 -1.18666e-06 -1.18588e-06 4.5518e-06 4.55274e-06 4.54848e-06 4.54986e-06 9.80242e-06 9.80414e-06 4.54986e-06 4.5509e-06 9.80414e-06 9.80561e-06 9.80242e-06 9.80414e-06 -7.26935e-06 -7.26732e-06 9.80414e-06 9.80561e-06 -7.26732e-06 -7.26539e-06 4.5509e-06 4.5518e-06 9.80561e-06 9.80696e-06 4.5518e-06 4.55274e-06 9.80696e-06 9.80834e-06 9.80561e-06 9.80696e-06 -7.26539e-06 -7.26341e-06 9.80696e-06 9.80834e-06 -7.26341e-06 -7.26136e-06 -1.87886e-06 -1.87789e-06 -1.18588e-06 -1.1851e-06 -1.87789e-06 -1.87714e-06 -1.1851e-06 -1.1845e-06 -1.18588e-06 -1.1851e-06 4.55274e-06 4.55364e-06 -1.1851e-06 -1.1845e-06 4.55364e-06 4.55438e-06 -1.87714e-06 -1.87667e-06 -1.1845e-06 -1.18412e-06 -1.87667e-06 -1.87651e-06 -1.18412e-06 -1.18399e-06 -1.1845e-06 -1.18412e-06 4.55438e-06 4.55485e-06 -1.18412e-06 -1.18399e-06 4.55485e-06 4.55502e-06 4.55274e-06 4.55364e-06 9.80834e-06 9.80967e-06 4.55364e-06 4.55438e-06 9.80967e-06 9.81075e-06 9.80834e-06 9.80967e-06 -7.26136e-06 -7.25944e-06 9.80967e-06 9.81075e-06 -7.25944e-06 -7.25785e-06 4.55438e-06 4.55485e-06 9.81075e-06 9.81146e-06 4.55485e-06 4.55502e-06 9.81146e-06 9.81171e-06 9.81075e-06 9.81146e-06 -7.25785e-06 -7.25676e-06 9.81146e-06 9.81171e-06 -7.25676e-06 -7.25635e-06 -7.26935e-06 -7.26732e-06 -6.02252e-05 -6.02229e-05 -7.26732e-06 -7.26539e-06 -6.02229e-05 -6.02203e-05 -6.02252e-05 -6.02229e-05 -0.000143436 -0.000143433 -6.02229e-05 -6.02203e-05 -0.000143433 -0.00014343 -7.26539e-06 -7.26341e-06 -6.02203e-05 -6.02176e-05 -7.26341e-06 -7.26136e-06 -6.02176e-05 -6.02148e-05 -6.02203e-05 -6.02176e-05 -0.00014343 -0.000143426 -6.02176e-05 -6.02148e-05 -0.000143426 -0.000143423 -0.000143436 -0.000143433 -0.000243718 -0.000243715 -0.000143433 -0.00014343 -0.000243715 -0.000243711 -0.000243718 -0.000243715 -0.000350923 -0.000350919 -0.000243715 -0.000243711 -0.000350919 -0.000350915 -0.00014343 -0.000143426 -0.000243711 -0.000243707 -0.000143426 -0.000143423 -0.000243707 -0.000243702 -0.000243711 -0.000243707 -0.000350915 -0.00035091 -0.000243707 -0.000243702 -0.00035091 -0.000350904 -7.26136e-06 -7.25944e-06 -6.02148e-05 -6.02121e-05 -7.25944e-06 -7.25785e-06 -6.02121e-05 -6.02099e-05 -6.02148e-05 -6.02121e-05 -0.000143423 -0.000143419 -6.02121e-05 -6.02099e-05 -0.000143419 -0.000143416 -7.25785e-06 -7.25676e-06 -6.02099e-05 -6.02082e-05 -7.25676e-06 -7.25635e-06 -6.02082e-05 -6.02074e-05 -6.02099e-05 -6.02082e-05 -0.000143416 -0.000143413 -6.02082e-05 -6.02074e-05 -0.000143413 -0.000143412 -0.000143423 -0.000143419 -0.000243702 -0.000243698 -0.000143419 -0.000143416 -0.000243698 -0.000243693 -0.000243702 -0.000243698 -0.000350904 -0.000350899 -0.000243698 -0.000243693 -0.000350899 -0.000350893 -0.000143416 -0.000143413 -0.000243693 -0.00024369 -0.000143413 -0.000143412 -0.00024369 -0.000243686 -0.000243693 -0.00024369 -0.000350893 -0.000350888 -0.00024369 -0.000243686 -0.000350888 -0.000350883 -0.000350939 -0.000350938 -0.000460287 -0.000460286 -0.000350938 -0.000350936 -0.000460286 -0.000460285 -0.000460287 -0.000460286 -0.000570124 -0.000570123 -0.000460286 -0.000460285 -0.000570123 -0.000570122 -0.000350936 -0.000350935 -0.000460285 -0.000460284 -0.000350935 -0.000350934 -0.000460284 -0.000460282 -0.000460285 -0.000460284 -0.000570122 -0.000570121 -0.000460284 -0.000460282 -0.000570121 -0.000570119 -0.000570124 -0.000570123 -0.000680068 -0.000680067 -0.000570123 -0.000570122 -0.000680067 -0.000680066 -0.000680068 -0.000680067 -0.00079003 -0.000790029 -0.000680067 -0.000680066 -0.000790029 -0.000790028 -0.000570122 -0.000570121 -0.000680066 -0.000680064 -0.000570121 -0.000570119 -0.000680064 -0.000680062 -0.000680066 -0.000680064 -0.000790028 -0.000790026 -