# vtk DataFile Version 3.0
#This file was generated by the deal.II library on 2022/11/16 at 21:34:32
ASCII
DATASET UNSTRUCTURED_GRID

POINTS 4096 double
0 0.5 0
0.03125 0.5 0
0 0.53125 0
0.03125 0.53125 0
0.03125 0.5 0
0.0625 0.5 0
0.03125 0.53125 0
0.0625 0.53125 0
0 0.53125 0
0.03125 0.53125 0
0 0.5625 0
0.03125 0.5625 0
0.03125 0.53125 0
0.0625 0.53125 0
0.03125 0.5625 0
0.0625 0.5625 0
0.0625 0.5 0
0.09375 0.5 0
0.0625 0.53125 0
0.09375 0.53125 0
0.09375 0.5 0
0.125 0.5 0
0.09375 0.53125 0
0.125 0.53125 0
0.0625 0.53125 0
0.09375 0.53125 0
0.0625 0.5625 0
0.09375 0.5625 0
0.09375 0.53125 0
0.125 0.53125 0
0.09375 0.5625 0
0.125 0.5625 0
0 0.5625 0
0.03125 0.5625 0
0 0.59375 0
0.03125 0.59375 0
0.03125 0.5625 0
0.0625 0.5625 0
0.03125 0.59375 0
0.0625 0.59375 0
0 0.59375 0
0.03125 0.59375 0
0 0.625 0
0.03125 0.625 0
0.03125 0.59375 0
0.0625 0.59375 0
0.03125 0.625 0
0.0625 0.625 0
0.0625 0.5625 0
0.09375 0.5625 0
0.0625 0.59375 0
0.09375 0.59375 0
0.09375 0.5625 0
0.125 0.5625 0
0.09375 0.59375 0
0.125 0.59375 0
0.0625 0.59375 0
0.09375 0.59375 0
0.0625 0.625 0
0.09375 0.625 0
0.09375 0.59375 0
0.125 0.59375 0
0.09375 0.625 0
0.125 0.625 0
0.125 0.5 0
0.15625 0.5 0
0.125 0.53125 0
0.15625 0.53125 0
0.15625 0.5 0
0.1875 0.5 0
0.15625 0.53125 0
0.1875 0.53125 0
0.125 0.53125 0
0.15625 0.53125 0
0.125 0.5625 0
0.15625 0.5625 0
0.15625 0.53125 0
0.1875 0.53125 0
0.15625 0.5625 0
0.1875 0.5625 0
0.1875 0.5 0
0.21875 0.5 0
0.1875 0.53125 0
0.21875 0.53125 0
0.21875 0.5 0
0.25 0.5 0
0.21875 0.53125 0
0.25 0.53125 0
0.1875 0.53125 0
0.21875 0.53125 0
0.1875 0.5625 0
0.21875 0.5625 0
0.21875 0.53125 0
0.25 0.53125 0
0.21875 0.5625 0
0.25 0.5625 0
0.125 0.5625 0
0.15625 0.5625 0
0.125 0.59375 0
0.15625 0.59375 0
0.15625 0.5625 0
0.1875 0.5625 0
0.15625 0.59375 0
0.1875 0.59375 0
0.125 0.59375 0
0.15625 0.59375 0
0.125 0.625 0
0.15625 0.625 0
0.15625 0.59375 0
0.1875 0.59375 0
0.15625 0.625 0
0.1875 0.625 0
0.1875 0.5625 0
0.21875 0.5625 0
0.1875 0.59375 0
0.21875 0.59375 0
0.21875 0.5625 0
0.25 0.5625 0
0.21875 0.59375 0
0.25 0.59375 0
0.1875 0.59375 0
0.21875 0.59375 0
0.1875 0.625 0
0.21875 0.625 0
0.21875 0.59375 0
0.25 0.59375 0
0.21875 0.625 0
0.25 0.625 0
0 0.625 0
0.03125 0.625 0
0 0.65625 0
0.03125 0.65625 0
0.03125 0.625 0
0.0625 0.625 0
0.03125 0.65625 0
0.0625 0.65625 0
0 0.65625 0
0.03125 0.65625 0
0 0.6875 0
0.03125 0.6875 0
0.03125 0.65625 0
0.0625 0.65625 0
0.03125 0.6875 0
0.0625 0.6875 0
0.0625 0.625 0
0.09375 0.625 0
0.0625 0.65625 0
0.09375 0.65625 0
0.09375 0.625 0
0.125 0.625 0
0.09375 0.65625 0
0.125 0.65625 0
0.0625 0.65625 0
0.09375 0.65625 0
0.0625 0.6875 0
0.09375 0.6875 0
0.09375 0.65625 0
0.125 0.65625 0
0.09375 0.6875 0
0.125 0.6875 0
0 0.6875 0
0.03125 0.6875 0
0 0.71875 0
0.03125 0.71875 0
0.03125 0.6875 0
0.0625 0.6875 0
0.03125 0.71875 0
0.0625 0.71875 0
0 0.71875 0
0.03125 0.71875 0
0 0.75 0
0.03125 0.75 0
0.03125 0.71875 0
0.0625 0.71875 0
0.03125 0.75 0
0.0625 0.75 0
0.0625 0.6875 0
0.09375 0.6875 0
0.0625 0.71875 0
0.09375 0.71875 0
0.09375 0.6875 0
0.125 0.6875 0
0.09375 0.71875 0
0.125 0.71875 0
0.0625 0.71875 0
0.09375 0.71875 0
0.0625 0.75 0
0.09375 0.75 0
0.09375 0.71875 0
0.125 0.71875 0
0.09375 0.75 0
0.125 0.75 0
0.125 0.625 0
0.15625 0.625 0
0.125 0.65625 0
0.15625 0.65625 0
0.15625 0.625 0
0.1875 0.625 0
0.15625 0.65625 0
0.1875 0.65625 0
0.125 0.65625 0
0.15625 0.65625 0
0.125 0.6875 0
0.15625 0.6875 0
0.15625 0.65625 0
0.1875 0.65625 0
0.15625 0.6875 0
0.1875 0.6875 0
0.1875 0.625 0
0.21875 0.625 0
0.1875 0.65625 0
0.21875 0.65625 0
0.21875 0.625 0
0.25 0.625 0
0.21875 0.65625 0
0.25 0.65625 0
0.1875 0.65625 0
0.21875 0.65625 0
0.1875 0.6875 0
0.21875 0.6875 0
0.21875 0.65625 0
0.25 0.65625 0
0.21875 0.6875 0
0.25 0.6875 0
0.125 0.6875 0
0.15625 0.6875 0
0.125 0.71875 0
0.15625 0.71875 0
0.15625 0.6875 0
0.1875 0.6875 0
0.15625 0.71875 0
0.1875 0.71875 0
0.125 0.71875 0
0.15625 0.71875 0
0.125 0.75 0
0.15625 0.75 0
0.15625 0.71875 0
0.1875 0.71875 0
0.15625 0.75 0
0.1875 0.75 0
0.1875 0.6875 0
0.21875 0.6875 0
0.1875 0.71875 0
0.21875 0.71875 0
0.21875 0.6875 0
0.25 0.6875 0
0.21875 0.71875 0
0.25 0.71875 0
0.1875 0.71875 0
0.21875 0.71875 0
0.1875 0.75 0
0.21875 0.75 0
0.21875 0.71875 0
0.25 0.71875 0
0.21875 0.75 0
0.25 0.75 0
0.25 0.5 0
0.28125 0.5 0
0.25 0.53125 0
0.28125 0.53125 0
0.28125 0.5 0
0.3125 0.5 0
0.28125 0.53125 0
0.3125 0.53125 0
0.25 0.53125 0
0.28125 0.53125 0
0.25 0.5625 0
0.28125 0.5625 0
0.28125 0.53125 0
0.3125 0.53125 0
0.28125 0.5625 0
0.3125 0.5625 0
0.3125 0.5 0
0.34375 0.5 0
0.3125 0.53125 0
0.34375 0.53125 0
0.34375 0.5 0
0.375 0.5 0
0.34375 0.53125 0
0.375 0.53125 0
0.3125 0.53125 0
0.34375 0.53125 0
0.3125 0.5625 0
0.34375 0.5625 0
0.34375 0.53125 0
0.375 0.53125 0
0.34375 0.5625 0
0.375 0.5625 0
0.25 0.5625 0
0.28125 0.5625 0
0.25 0.59375 0
0.28125 0.59375 0
0.28125 0.5625 0
0.3125 0.5625 0
0.28125 0.59375 0
0.3125 0.59375 0
0.25 0.59375 0
0.28125 0.59375 0
0.25 0.625 0
0.28125 0.625 0
0.28125 0.59375 0
0.3125 0.59375 0
0.28125 0.625 0
0.3125 0.625 0
0.3125 0.5625 0
0.34375 0.5625 0
0.3125 0.59375 0
0.34375 0.59375 0
0.34375 0.5625 0
0.375 0.5625 0
0.34375 0.59375 0
0.375 0.59375 0
0.3125 0.59375 0
0.34375 0.59375 0
0.3125 0.625 0
0.34375 0.625 0
0.34375 0.59375 0
0.375 0.59375 0
0.34375 0.625 0
0.375 0.625 0
0.375 0.5 0
0.40625 0.5 0
0.375 0.53125 0
0.40625 0.53125 0
0.40625 0.5 0
0.4375 0.5 0
0.40625 0.53125 0
0.4375 0.53125 0
0.375 0.53125 0
0.40625 0.53125 0
0.375 0.5625 0
0.40625 0.5625 0
0.40625 0.53125 0
0.4375 0.53125 0
0.40625 0.5625 0
0.4375 0.5625 0
0.4375 0.5 0
0.46875 0.5 0
0.4375 0.53125 0
0.46875 0.53125 0
0.46875 0.5 0
0.5 0.5 0
0.46875 0.53125 0
0.5 0.53125 0
0.4375 0.53125 0
0.46875 0.53125 0
0.4375 0.5625 0
0.46875 0.5625 0
0.46875 0.53125 0
0.5 0.53125 0
0.46875 0.5625 0
0.5 0.5625 0
0.375 0.5625 0
0.40625 0.5625 0
0.375 0.59375 0
0.40625 0.59375 0
0.40625 0.5625 0
0.4375 0.5625 0
0.40625 0.59375 0
0.4375 0.59375 0
0.375 0.59375 0
0.40625 0.59375 0
0.375 0.625 0
0.40625 0.625 0
0.40625 0.59375 0
0.4375 0.59375 0
0.40625 0.625 0
0.4375 0.625 0
0.4375 0.5625 0
0.46875 0.5625 0
0.4375 0.59375 0
0.46875 0.59375 0
0.46875 0.5625 0
0.5 0.5625 0
0.46875 0.59375 0
0.5 0.59375 0
0.4375 0.59375 0
0.46875 0.59375 0
0.4375 0.625 0
0.46875 0.625 0
0.46875 0.59375 0
0.5 0.59375 0
0.46875 0.625 0
0.5 0.625 0
0.25 0.625 0
0.28125 0.625 0
0.25 0.65625 0
0.28125 0.65625 0
0.28125 0.625 0
0.3125 0.625 0
0.28125 0.65625 0
0.3125 0.65625 0
0.25 0.65625 0
0.28125 0.65625 0
0.25 0.6875 0
0.28125 0.6875 0
0.28125 0.65625 0
0.3125 0.65625 0
0.28125 0.6875 0
0.3125 0.6875 0
0.3125 0.625 0
0.34375 0.625 0
0.3125 0.65625 0
0.34375 0.65625 0
0.34375 0.625 0
0.375 0.625 0
0.34375 0.65625 0
0.375 0.65625 0
0.3125 0.65625 0
0.34375 0.65625 0
0.3125 0.6875 0
0.34375 0.6875 0
0.34375 0.65625 0
0.375 0.65625 0
0.34375 0.6875 0
0.375 0.6875 0
0.25 0.6875 0
0.28125 0.6875 0
0.25 0.71875 0
0.28125 0.71875 0
0.28125 0.6875 0
0.3125 0.6875 0
0.28125 0.71875 0
0.3125 0.71875 0
0.25 0.71875 0
0.28125 0.71875 0
0.25 0.75 0
0.28125 0.75 0
0.28125 0.71875 0
0.3125 0.71875 0
0.28125 0.75 0
0.3125 0.75 0
0.3125 0.6875 0
0.34375 0.6875 0
0.3125 0.71875 0
0.34375 0.71875 0
0.34375 0.6875 0
0.375 0.6875 0
0.34375 0.71875 0
0.375 0.71875 0
0.3125 0.71875 0
0.34375 0.71875 0
0.3125 0.75 0
0.34375 0.75 0
0.34375 0.71875 0
0.375 0.71875 0
0.34375 0.75 0
0.375 0.75 0
0.375 0.625 0
0.40625 0.625 0
0.375 0.65625 0
0.40625 0.65625 0
0.40625 0.625 0
0.4375 0.625 0
0.40625 0.65625 0
0.4375 0.65625 0
0.375 0.65625 0
0.40625 0.65625 0
0.375 0.6875 0
0.40625 0.6875 0
0.40625 0.65625 0
0.4375 0.65625 0
0.40625 0.6875 0
0.4375 0.6875 0
0.4375 0.625 0
0.46875 0.625 0
0.4375 0.65625 0
0.46875 0.65625 0
0.46875 0.625 0
0.5 0.625 0
0.46875 0.65625 0
0.5 0.65625 0
0.4375 0.65625 0
0.46875 0.65625 0
0.4375 0.6875 0
0.46875 0.6875 0
0.46875 0.65625 0
0.5 0.65625 0
0.46875 0.6875 0
0.5 0.6875 0
0.375 0.6875 0
0.40625 0.6875 0
0.375 0.71875 0
0.40625 0.71875 0
0.40625 0.6875 0
0.4375 0.6875 0
0.40625 0.71875 0
0.4375 0.71875 0
0.375 0.71875 0
0.40625 0.71875 0
0.375 0.75 0
0.40625 0.75 0
0.40625 0.71875 0
0.4375 0.71875 0
0.40625 0.75 0
0.4375 0.75 0
0.4375 0.6875 0
0.46875 0.6875 0
0.4375 0.71875 0
0.46875 0.71875 0
0.46875 0.6875 0
0.5 0.6875 0
0.46875 0.71875 0
0.5 0.71875 0
0.4375 0.71875 0
0.46875 0.71875 0
0.4375 0.75 0
0.46875 0.75 0
0.46875 0.71875 0
0.5 0.71875 0
0.46875 0.75 0
0.5 0.75 0
0 0.75 0
0.03125 0.75 0
0 0.78125 0
0.03125 0.78125 0
0.03125 0.75 0
0.0625 0.75 0
0.03125 0.78125 0
0.0625 0.78125 0
0 0.78125 0
0.03125 0.78125 0
0 0.8125 0
0.03125 0.8125 0
0.03125 0.78125 0
0.0625 0.78125 0
0.03125 0.8125 0
0.0625 0.8125 0
0.0625 0.75 0
0.09375 0.75 0
0.0625 0.78125 0
0.09375 0.78125 0
0.09375 0.75 0
0.125 0.75 0
0.09375 0.78125 0
0.125 0.78125 0
0.0625 0.78125 0
0.09375 0.78125 0
0.0625 0.8125 0
0.09375 0.8125 0
0.09375 0.78125 0
0.125 0.78125 0
0.09375 0.8125 0
0.125 0.8125 0
0 0.8125 0
0.03125 0.8125 0
0 0.84375 0
0.03125 0.84375 0
0.03125 0.8125 0
0.0625 0.8125 0
0.03125 0.84375 0
0.0625 0.84375 0
0 0.84375 0
0.03125 0.84375 0
0 0.875 0
0.03125 0.875 0
0.03125 0.84375 0
0.0625 0.84375 0
0.03125 0.875 0
0.0625 0.875 0
0.0625 0.8125 0
0.09375 0.8125 0
0.0625 0.84375 0
0.09375 0.84375 0
0.09375 0.8125 0
0.125 0.8125 0
0.09375 0.84375 0
0.125 0.84375 0
0.0625 0.84375 0
0.09375 0.84375 0
0.0625 0.875 0
0.09375 0.875 0
0.09375 0.84375 0
0.125 0.84375 0
0.09375 0.875 0
0.125 0.875 0
0.125 0.75 0
0.15625 0.75 0
0.125 0.78125 0
0.15625 0.78125 0
0.15625 0.75 0
0.1875 0.75 0
0.15625 0.78125 0
0.1875 0.78125 0
0.125 0.78125 0
0.15625 0.78125 0
0.125 0.8125 0
0.15625 0.8125 0
0.15625 0.78125 0
0.1875 0.78125 0
0.15625 0.8125 0
0.1875 0.8125 0
0.1875 0.75 0
0.21875 0.75 0
0.1875 0.78125 0
0.21875 0.78125 0
0.21875 0.75 0
0.25 0.75 0
0.21875 0.78125 0
0.25 0.78125 0
0.1875 0.78125 0
0.21875 0.78125 0
0.1875 0.8125 0
0.21875 0.8125 0
0.21875 0.78125 0
0.25 0.78125 0
0.21875 0.8125 0
0.25 0.8125 0
0.125 0.8125 0
0.15625 0.8125 0
0.125 0.84375 0
0.15625 0.84375 0
0.15625 0.8125 0
[...]
POINT_DATA 4096
SCALARS x_dis double 1
LOOKUP_TABLE default
-0.000266882 -0.000266876 -0.000372426 -0.000372417 -0.000266876 -0.00026687 -0.000372417 -0.000372411 -0.000372426 -0.000372417 -0.000480974 -0.000480963 -0.000372417 -0.000372411 -0.000480963 -0.000480956 -0.00026687 -0.000266865 -0.000372411 -0.000372407 -0.000266865 -0.000266859 -0.000372407 -0.000372402 -0.000372411 -0.000372407 -0.000480956 -0.000480953 -0.000372407 -0.000372402 -0.000480953 -0.000480949 -0.000480974 -0.000480963 -0.00059054 -0.000590528 -0.000480963 -0.000480956 -0.000590528 -0.000590519 -0.00059054 -0.000590528 -0.000700398 -0.000700384 -0.000590528 -0.000590519 -0.000700384 -0.000700373 -0.000480956 -0.000480953 -0.000590519 -0.000590515 -0.000480953 -0.000480949 -0.000590515 -0.000590513 -0.000590519 -0.000590515 -0.000700373 -0.000700368 -0.000590515 -0.000590513 -0.000700368 -0.000700366 -0.000266859 -0.000266853 -0.000372402 -0.000372393 -0.000266853 -0.000266846 -0.000372393 -0.000372373 -0.000372402 -0.000372393 -0.000480949 -0.000480938 -0.000372393 -0.000372373 -0.000480938 -0.000480908 -0.000266846 -0.000266837 -0.000372373 -0.000372335 -0.000266837 -0.000266826 -0.000372335 -0.000372273 -0.000372373 -0.000372335 -0.000480908 -0.00048085 -0.000372335 -0.000372273 -0.00048085 -0.000480753 -0.000480949 -0.000480938 -0.000590513 -0.000590502 -0.000480938 -0.000480908 -0.000590502 -0.000590468 -0.000590513 -0.000590502 -0.000700366 -0.000700358 -0.000590502 -0.000590468 -0.000700358 -0.000700326 -0.000480908 -0.00048085 -0.000590468 -0.0005904 -0.00048085 -0.000480753 -0.0005904 -0.00059029 -0.000590468 -0.0005904 -0.000700326 -0.000700259 -0.0005904 -0.00059029 -0.000700259 -0.000700151 -0.000700398 -0.000700384 -0.00081033 -0.000810314 -0.000700384 -0.000700373 -0.000810314 -0.000810301 -0.00081033 -0.000810314 -0.000920282 -0.000920263 -0.000810314 -0.000810301 -0.000920263 -0.000920247 -0.000700373 -0.000700368 -0.000810301 -0.000810293 -0.000700368 -0.000700366 -0.000810293 -0.000810291 -0.000810301 -0.000810293 -0.000920247 -0.000920236 -0.000810293 -0.000810291 -0.000920236 -0.000920232 -0.000920282 -0.000920263 -0.00103024 -0.00103022 -0.000920263 -0.000920247 -0.00103022 -0.0010302 -0.00103024 -0.00103022 -0.0011402 -0.00114018 -0.00103022 -0.0010302 -0.00114018 -0.00114016 -0.000920247 -0.000920236 -0.0010302 -0.00103019 -0.000920236 -0.000920232 -0.00103019 -0.00103018 -0.0010302 -0.00103019 -0.00114016 -0.00114014 -0.00103019 -0.00103018 -0.00114014 -0.00114013 -0.000700366 -0.000700358 -0.000810291 -0.000810286 -0.000700358 -0.000700326 -0.000810286 -0.000810262 -0.000810291 -0.000810286 -0.000920232 -0.000920229 -0.000810286 -0.000810262 -0.000920229 -0.000920216 -0.000700326 -0.000700259 -0.000810262 -0.000810205 -0.000700259 -0.000700151 -0.000810205 -0.000810107 -0.000810262 -0.000810205 -0.000920216 -0.000920175 -0.000810205 -0.000810107 -0.000920175 -0.000920097 -0.000920232 -0.000920229 -0.00103018 -0.00103018 -0.000920229 -0.000920216 -0.00103018 -0.00103017 -0.00103018 -0.00103018 -0.00114013 -0.00114013 -0.00103018 -0.00103017 -0.00114013 -0.00114012 -0.000920216 -0.000920175 -0.00103017 -0.00103015 -0.000920175 -0.000920097 -0.00103015 -0.0010301 -0.00103017 -0.00103015 -0.00114012 -0.00114011 -0.00103015 -0.0010301 -0.00114011 -0.00114009 -0.000266826 -0.000266818 -0.000372273 -0.000372202 -0.000266818 -0.000266821 -0.000372202 -0.000372215 -0.000372273 -0.000372202 -0.000480753 -0.000480633 -0.000372202 -0.000372215 -0.000480633 -0.000480613 -0.000266821 -0.000266839 -0.000372215 -0.000372552 -0.000266839 -0.000266866 -0.000372552 -0.00037368 -0.000372215 -0.000372552 -0.000480613 -0.000481026 -0.000372552 -0.00037368 -0.000481026 -0.000482489 -0.000480753 -0.000480633 -0.00059029 -0.000590148 -0.000480633 -0.000480613 -0.000590148 -0.000590073 -0.00059029 -0.000590148 -0.000700151 -0.000700011 -0.000590148 -0.000590073 -0.000700011 -0.000699903 -0.000480613 -0.000481026 -0.000590073 -0.000590334 -0.000481026 -0.000482489 -0.000590334 -0.000591382 -0.000590073 -0.000590334 -0.000699903 -0.000699979 -0.000590334 -0.000591382 -0.000699979 -0.000700439 -0.000266866 -0.000266876 -0.00037368 -0.000376413 -0.000266876 -0.000266824 -0.000376413 -0.000382383 -0.00037368 -0.000376413 -0.000482489 -0.000485948 -0.000376413 -0.000382383 -0.000485948 -0.000492662 -0.000266824 -0.000266571 -0.000382383 -0.000395171 -0.000266571 -0.000266204 -0.000395171 -0.000426103 -0.000382383 -0.000395171 -0.000492662 -0.000504221 -0.000395171 -0.000426103 -0.000504221 -0.000514962 -0.000482489 -0.000485948 -0.000591382 -0.000593717 -0.000485948 -0.000492662 -0.000593717 -0.00059762 -0.000591382 -0.000593717 -0.000700439 -0.000701367 -0.000593717 -0.00059762 -0.000701367 -0.000702378 -0.000492662 -0.000504221 -0.00059762 -0.000601802 -0.000504221 -0.000514962 -0.000601802 -0.000604931 -0.00059762 -0.000601802 -0.000702378 -0.00070272 -0.000601802 -0.000604931 -0.00070272 -0.000701545 -0.000700151 -0.000700011 -0.000810107 -0.000809979 -0.000700011 -0.000699903 -0.000809979 -0.000809863 -0.000810107 -0.000809979 -0.000920097 -0.000919984 -0.000809979 -0.000809863 -0.000919984 -0.000919863 -0.000699903 -0.000699979 -0.000809863 -0.000809836 -0.000699979 -0.000700439 -0.000809836 -0.000809968 -0.000809863 -0.000809836 -0.000919863 -0.000919788 -0.000809836 -0.000809968 -0.000919788 -0.000919808 -0.000920097 -0.000919984 -0.0010301 -0.00103001 -0.000919984 -0.000919863 -0.00103001 -0.0010299 -0.0010301 -0.00103001 -0.00114009 -0.00114004 -0.00103001 -0.0010299 -0.00114004 -0.00113996 -0.000919863 -0.000919788 -0.0010299 -0.00102979 -0.000919788 -0.000919808 -0.00102979 -0.00102974 -0.0010299 -0.00102979 -0.00113996 -0.00113986 -0.00102979 -0.00102974 -0.00113986 -0.00113976 -0.000700439 -0.000701367 -0.000809968 -0.000810168 -0.000701367 -0.000702378 -0.000810168 -0.000810108 -0.000809968 -0.000810168 -0.000919808 -0.000919892 -0.000810168 -0.000810108 -0.000919892 -0.000919872 -0.000702378 -0.00070272 -0.000810108 -0.000809294 -0.00070272 -0.000701545 -0.000809294 -0.000807481 -0.000810108 -0.000809294 -0.000919872 -0.000919532 -0.000809294 -0.000807481 -0.000919532 -0.000918787 -0.000919808 -0.000919892 -0.00102974 -0.00102979 -0.000919892 -0.000919872 -0.00102979 -0.00102993 -0.00102974 -0.00102979 -0.00113976 -0.00113971 -0.00102979 -0.00102993 -0.00113971 -0.00113977 -0.000919872 -0.000919532 -0.00102993 -0.00103013 -0.000919532 -0.000918787 -0.00103013 -0.00103033 -0.00102993 -0.00103013 -0.00113977 -0.00113996 -0.00103013 -0.00103033 -0.00113996 -0.00114026 -0.0011402 -0.00114018 -0.00125017 -0.00125015 -0.00114018 -0.00114016 -0.00125015 -0.00125013 -0.00125017 -0.00125015 -0.00136015 -0.00136012 -0.00125015 -0.00125013 -0.00136012 -0.0013601 -0.00114016 -0.00114014 -0.00125013 -0.00125011 -0.00114014 -0.00114013 -0.00125011 -0.00125009 -0.00125013 -0.00125011 -0.0013601 -0.00136008 -0.00125011 -0.00125009 -0.00136008 -0.00136006 -0.00136015 -0.00136012 -0.00147013 -0.0014701 -0.00136012 -0.0013601 -0.0014701 -0.00147008 -0.00147013 -0.0014701 -0.00158011 -0.00158008 -0.0014701 -0.00147008 -0.00158008 -0.00158006 -0.0013601 -0.00136008 -0.00147008 -0.00147005 -0.00136008 -0.00136006 -0.00147005 -0.00147003 -0.00147008 -0.00147005 -0.00158006 -0.00158004 -0.00147005 -0.00147003 -0.00158004 -0.00158002 -0.00114013 -0.00114013 -0.00125009 -0.00125008 -0.00114013 -0.00114012 -0.00125008 -0.00125008 -0.00125009 -0.00125008 -0.00136006 -0.00136005 -0.00125008 -0.00125008 -0.00136005 -0.00136004 -0.00114012 -0.00114011 -0.00125008 -0.00125007 -0.00114011 -0.00114009 -0.00125007 -0.00125006 -0.00125008 -0.00125007 -0.00136004 -0.00136004 -0.00125007 -0.00125006 -0.00136004 -0.00136003 -0.00136006 -0.00136005 -0.00147003 -0.00147002 -0.00136005 -0.00136004 -0.00147002 -0.00147001 -0.00147003 -0.00147002 -0.00158002 -0.00158 -0.00147002 -0.00147001 -0.00158 -0.00157999 -0.00136004 -0.00136004 -0.00147001 -0.00147 -0.00136004 -0.00136003 -0.00147 -0.00147 -0.00147001 -0.00147 -0.00157999 -0.00157998 -0.00147 -0.00147 -0.00157998 -0.00157998 -0.00158011 -0.00158008 -0.0016901 -0.00169007 -0.00158008 -0.00158006 -0.00169007 -0.00169004 -0.0016901 -0.00169007 -0.00180009 -0.00180006 -0.00169007 -0.00169004 -0.00180006 -0.00180003 -0.00158006 -0.00158004 -0.00169004 -0.00169002 -0.00158004 -0.00158002 -0.00169002 -0.00169 -0.00169004 -0.00169002 -0.00180003 -0.00180001 -0.00169002 -0.00169 -0.00180001 -0.0018 -0.00180009 -0.00180006 -0.00191007 -0.00191003 -0.00180006 -0.00180003 -0.00191003 -0.00191002 -0.00191007 -0.00191003 -0.00202 -0.00202 -0.00191003 -0.00191002 -0.00202 -0.00202 -0.00180003 -0.00180001 -0.00191002 -0.00191 -0.00180001 -0.0018 -0.00191 -0.00191 -0.00191002 -0.00191 -0.00202 -0.00202 -0.00191 -0.00191 -0.00202 -0.00202 -0.00158002 -0.00158 -0.00169 -0.00168999 -0.00158 -0.00157999 -0.00168999 -0.00168998 -0.00169 -0.00168999 -0.0018 -0.00179999 -0.00168999 -0.00168998 -0.00179999 -0.00179998 -0.00157999 -0.00157998 -0.00168998 -0.00168997 -0.00157998 -0.00157998 -0.00168997 -0.00168996 -0.00168998 -0.00168997 -0.00179998 -0.00179997 -0.00168997 -0.00168996 -0.00179997 -0.00179997 -0.0018 -0.00179999 -0.00191 -0.00190999 -0.00179999 -0.00179998 -0.00190999 -0.00190999 -0.00191 -0.00190999 -0.00202 -0.00202 -0.00190999 -0.00190999 -0.00202 -0.00202 -0.00179998 -0.00179997 -0.00190999 -0.00190998 -0.00179997 -0.00179997 -0.00190998 -0.00190998 -0.00190999 -0.00190998 -0.00202 -0.00202 -0.00190998 -0.00190998 -0.00202 -0.00202 -0.00114009 -0.00114004 -0.00125006 -0.00125005 -0.00114004 -0.00113996 -0.00125005 -0.00125001 -0.00125006 -0.00125005 -0.00136003 -0.00136002 -0.00125005 -0.00125001 -0.00136002 -0.00136001 -0.00113996 -0.00113986 -0.00125001 -0.00124996 -0.00113986 -0.00113976 -0.00124996 -0.00124988 -0.00125001 -0.00124996 -0.00136001 -0.00136 -0.00124996 -0.00124988 -0.00136 -0.00135998 -0.00136003 -0.00136002 -0.00147 -0.00147 -0.00136002 -0.00136001 -0.00147 -0.00146999 -0.00147 -0.00147 -0.00157998 -0.00157998 -0.00147 -0.00146999 -0.00157998 -0.00157997 -0.00136001 -0.00136 -0.00146999 -0.00146999 -0.00136 -0.00135998 -0.00146999 -0.00146998 -0.00146999 -0.00146999 -0.00157997 -0.00157997 -0.00146999 -0.00146998 -0.00157997 -0.00157996 -0.00113976 -0.00113971 -0.00124988 -0.0012498 -0.00113971 -0.00113977 -0.0012498 -0.00124975 -0.00124988 -0.0012498 -0.00135998 -0.00135994 -0.0012498 -0.00124975 -0.00135994 -0.00135991 -0.00113977 -0.00113996 -0.00124975 -0.00124975 -0.00113996 -0.00114026 -0.00124975 -0.00124981 -0.00124975 -0.00124975 -0.00135991 -0.00135987 -0.00124975 -0.00124981 -0.00135987 -0.00135984 -0.00135998 -0.00135994 -0.00146998 -0.00146998 -0.00135994 -0.00135991 -0.00146998 -0.00146998 -0.00146998 -0.00146998 -0.00157996 -0.00157996 -0.00146998 -0.00146998 -0.00157996 -0.00157996 -0.00135991 -0.00135987 -0.00146998 -0.00146998 -0.00135987 -0.00135984 -0.00146998 -0.00146998 -0.00146998 -0.00146998 -0.00157996 -0.00157996 -0.00146998 -0.00146998 -0.00157996 -0.00157995 -0.00157998 -0.00157998 -0.00168996 -0.00168996 -0.00157998 -0.00157997 -0.00168996 -0.00168996 -0.00168996 -0.00168996 -0.00179997 -0.00179996 -0.00168996 -0.00168996 -0.00179996 -0.00179996 -0.00157997 -0.00157997 -0.00168996 -0.00168996 -0.00157997 -0.00157996 -0.00168996 -0.00168996 -0.00168996 -0.00168996 -0.00179996 -0.00179996 -0.00168996 -0.00168996 -0.00179996 -0.00179996 -0.00179997 -0.00179996 -0.00190998 -0.00190998 -0.00179996 -0.00179996 -0.00190998 -0.00190997 -0.00190998 -0.00190998 -0.00202 -0.00202 -0.00190998 -0.00190997 -0.00202 -0.00202 -0.00179996 -0.00179996 -0.00190997 -0.00190997 -0.00179996 -0.00179996 -0.00190997 -0.00190997 -0.00190997 -0.00190997 -0.00202 -0.00202 -0.00190997 -0.00190997 -0.00202 -0.00202 -0.00157996 -0.00157996 -0.00168996 -0.00168995 -0.00157996 -0.00157996 -0.00168995 -0.00168994 -0.00168996 -0.00168995 -0.00179996 -0.00179996 -0.00168995 -0.00168994 -0.00179996 -0.00179995 -0.00157996 -0.00157996 -0.00168994 -0.00168993 -0.00157996 -0.00157995 -0.00168993 -0.00168992 -0.00168994 -0.00168993 -0.00179995 -0.00179995 -0.00168993 -0.00168992 -0.00179995 -0.00179994 -0.00179996 -0.00179996 -0.00190997 -0.00190997 -0.00179996 -0.00179995 -0.00190997 -0.00190997 -0.00190997 -0.00190997 -0.00202 -0.00202 -0.00190997 -0.00190997 -0.00202 -0.00202 -0.00179995 -0.00179995 -0.00190997 -0.00190997 -0.00179995 -0.00179994 -0.00190997 -0.00190997 -0.00190997 -0.00190997 -0.00202 -0.00202 -0.00190997 -0.00190997 -0.00202 -0.00202 -0.000266204 -0.000393584 -0.000426103 -0.00044739 -0.000393584 -0.000459673 -0.00044739 -0.000479485 -0.000426103 -0.00044739 -0.000514962 -0.000525286 -0.00044739 -0.000479485 -0.000525286 -0.000534061 -0.000459673 -0.00049543 -0.000479485 -0.000505892 -0.00049543 -0.000515159 -0.000505892 -0.000523856 -0.000479485 -0.000505892 -0.000534061 -0.000545437 -0.000505892 -0.000523856 -0.000545437 -0.00055554 -0.000514962 -0.000525286 -0.000604931 -0.000605864 -0.000525286 -0.000534061 -0.000605864 -0.000606761 -0.000604931 -0.000605864 -0.000701545 -0.000699111 -0.000605864 -0.000606761 -0.000699111 -0.000696526 -0.000534061 -0.000545437 -0.000606761 -0.000608793 -0.000545437 -0.00055554 -0.000608793 -0.000612063 -0.000606761 -0.000608793 -0.000696526 -0.000695139 -0.000608793 -0.000612063 -0.000695139 -0.000695162 -0.000515159 -0.000525775 -0.000523856 -0.000534702 -0.000525775 -0.00053143 -0.000534702 -0.000540302 -0.000523856 -0.000534702 -0.00055554 -0.000562577 -0.000534702 -0.000540302 -0.000562577 -0.00056637 -0.00053143 -0.000534265 -0.000540302 -0.000542422 -0.000534265 -0.000535193 -0.000542422 -0.00054259 -0.000540302 -0.000542422 -0.00056637 -0.000567653 -0.000542422 -0.00054259 -0.000567653 -0.000567526 -0.00055554 -0.000562577 -0.000612063 -0.000615074 -0.000562577 -0.00056637 -0.000615074 -0.000616925 -0.000612063 -0.000615074 -0.000695162 -0.000695982 -0.000615074 -0.000616925 -0.000695982 -0.000696744 -0.00056637 -0.000567653 -0.000616925 -0.000617539 -0.000567653 -0.000567526 -0.000617539 -0.000617378 -0.000616925 -0.000617539 -0.000696744 -0.000697036 -0.000617539 -0.000617378 -0.000697036 -0.000696918 -0.000701545 -0.000699111 -0.000807481 -0.000804963 -0.000699111 -0.000696526 -0.000804963 -0.000802588 -0.000807481 -0.000804963 -0.000918787 -0.000917839 -0.000804963 -0.000802588 -0.000917839 -0.000917085 -0.000696526 -0.000695139 -0.000802588 -0.000801122 -0.000695139 -0.000695162 -0.000801122 -0.000800774 -0.000802588 -0.000801122 -0.000917085 -0.000916836 -0.000801122 -0.000800774 -0.000916836 -0.000917072 -0.000918787 -0.000917839 -0.00103033 -0.00103058 -0.000917839 -0.000917085 -0.00103058 -0.00103094 -0.00103033 -0.00103058 -0.00114026 -0.00114065 -0.00103058 -0.00103094 -0.00114065 -0.00114105 -0.000917085 -0.000916836 -0.00103094 -0.00103139 -0.000916836 -0.000917072 -0.00103139 -0.00103183 -0.00103094 -0.00103139 -0.00114105 -0.00114136 -0.00103139 -0.00103183 -0.00114136 -0.00114152 -0.000695162 -0.000695982 -0.000800774 -0.000801112 -0.000695982 -0.000696744 -0.000801112 -0.000801535 -0.000800774 -0.000801112 -0.000917072 -0.000917484 -0.000801112 -0.000801535 -0.000917484 -0.000917743 -0.000696744 -0.000697036 -0.000801535 -0.000801683 -0.000697036 -0.000696918 -0.000801683 -0.000801545 -0.000801535 -0.000801683 -0.000917743 -0.000917725 -0.000801683 -0.000801545 -0.000917725 -0.000917519 -0.000917072 -0.000917484 -0.00103183 -0.00103209 -0.000917484 -0.000917743 -0.00103209 -0.00103211 -0.00103183 -0.00103209 -0.00114152 -0.0011415 -0.00103209 -0.00103211 -0.0011415 -0.00114136 -0.000917743 -0.000917725 -0.00103211 -0.00103194 -0.000917725 -0.000917519 -0.00103194 -0.00103173 -0.00103211 -0.00103194 -0.00114136 -0.00114119 -0.00103194 -0.00103173 -0.00114119 -0.00114107 -0.000535193 -0.000534874 -0.00054259 -0.000541971 -0.000534874 -0.000534106 -0.000541971 -0.000541284 -0.00054259 -0.000541971 -0.000567526 -0.000566945 -0.000541971 -0.000541284 -0.000566945 -0.000566436 -0.000534106 -0.000533517 -0.000541284 -0.000540846 -0.000533517 -0.000533282 -0.000540846 -0.000540694 -0.000541284 -0.000540846 -0.000566436 -0.000566145 -0.000540846 -0.000540694 -0.000566145 -0.000566042 -0.000567526 -0.000566945 -0.000617378 -0.00061697 -0.000566945 -0.000566436 -0.00061697 -0.000616615 -0.000617378 -0.00061697 -0.000696918 -0.000696627 -0.00061697 -0.000616615 -0.000696627 -0.000696343 -0.000566436 -0.000566145 -0.000616615 -0.000616392 -0.000566145 -0.000566042 -0.000616392 -0.000616291 -0.000616615 -0.000616392 -0.000696343 -0.000696147 -0.000616392 -0.000616291 -0.000696147 -0.000696058 -0.000533282 -0.000533279 -0.000540694 -0.000540719 -0.000533279 -0.000533355 -0.000540719 -0.00054079 -0.000540694 -0.000540719 -0.000566042 -0.000566049 -0.000540719 -0.00054079 -0.000566049 -0.000566092 -0.000533355 -0.000533421 -0.00054079 -0.000540839 -0.000533421 -0.000533446 -0.000540839 -0.000540853 -0.00054079 -0.000540839 -0.000566092 -0.000566124 -0.000540839 -0.000540853 -0.000566124 -0.000566133 -0.000566042 -0.000566049 -0.000616291 -0.00061628 -0.000566049 -0.000566092 -0.00061628 -0.000616311 -0.000616291 -0.00061628 -0.000696058 -0.000696055 -0.00061628 -0.000616311 -0.000696055 -0.000696087 -0.000566092 -0.000566124 -0.000616311 -0.000616341 -0.000566124 -0.000566133 -0.000616341 -0.000616348 -0.000616311 -0.000616341 -0.000696087 -0.000696112 -0.000616341 -0.000616348 -0.000696112 -0.000696113 -0.000696918 -0.000696627 -0.000801545 -0.000801282 -0.000696627 -0.000696343 -0.000801282 -0.000801038 -0.000801545 -0.000801282 -0.000917519 -0.000917278 -0.000801282 -0.000801038 -0.000917278 -0.000917102 -0.000696343 -0.000696147 -0.000801038 -0.000800886 -0.000696147 -0.000696058 -0.000800886 -0.000800837 -0.000801038 -0.000800886 -0.000917102 -0.00091702 -0.000800886 -0.000800837 -0.00091702 -0.000917011 -0.000917519 -0.000917278 -0.00103173 -0.00103157 -0.000917278 -0.000917102 -0.00103157 -0.00103148 -0.00103173 -0.00103157 -0.00114107 -0.001141 -0.00103157 -0.00103148 -0.001141 -0.00114097 -0.000917102 -0.00091702 -0.00103148 -0.00103146 -0.00091702 -0.000917011 -0.00103146 -0.00103147 -0.00103148 -0.00103146 -0.00114097 -0.00114097 -0.00103146 -0.00103147 -0.00114097 -0.00114098 -0.000696058 -0.000696055 -0.000800837 -0.000800852 -0.000696055 -0.000696087 -0.000800852 -0.00080088 -0.000800837 -0.000800852 -0.000917011 -0.000917032 -0.000800852 -0.00080088 -0.000917032 -0.000917048 -0.000696087 -0.000696112 -0.00080088 -0.000800893 -0.000696112 -0.000696113 -0.000800893 -0.000800884 -0.00080088 -0.000800893 -0.000917048 -0.000917047 -0.000800893 -0.000800884 -0.000917047 -0.000917032 -0.000917011 -0.000917032 -0.00103147 -0.00103148 -0.000917032 -0.000917048 -0.00103148 -0.00103148 -0.00103147 -0.00103148 -0.00114098 -0.00114098 -0.00103148 -0.00103148 -0.00114098 -0.00114098 -0.000917048 -0.000917047 -0.00103148 -0.00103147 -0.000917047 -0.000917032 -0.00103147 -0.00103145 -0.00103148 -0.00103147 -0.00114098 -0.00114096 -0.00103147 -0.00103145 -0.00114096 -0.00114094 -0.00114026 -0.00114065 -0.00124981 -0.0012499 -0.00114065 -0.00114105 -0.0012499 -0.00124997 -0.00124981 -0.0012499 -0.00135984 -0.00135981 -0.0012499 -0.00124997 -0.00135981 -0.00135977 -0.00114105 -0.00114136 -0.00124997 -0.00124998 -0.00114136 -0.00114152 -0.00124998 -0.00124992 -0.00124997 -0.00124998 -0.00135977 -0.00135972 -0.00124998 -0.00124992 -0.00135972 -0.00135968 -0.00135984 -0.00135981 -0.00146998 -0.00146997 -0.00135981 -0.00135977 -0.00146997 -0.00146997 -0.00146998 -0.00146997 -0.00157995 -0.00157995 -0.00146997 -0.00146997 -0.00157995 -0.00157995 -0.00135977 -0.00135972 -0.00146997 -0.00146997 -0.00135972 -0.00135968 -0.00146997 -0.00146997 -0.00146997 -0.00146997 -0.00157995 -0.00157995 -0.00146997 -0.00146997 -0.00157995 -0.00157995 -0.00114152 -0.0011415 -0.00124992 -0.00124981 -0.0011415 -0.00114136 -0.00124981 -0.0012497 -0.00124992 -0.00124981 -0.00135968 -0.00135964 -0.00124981 -0.0012497 -0.00135964 -0.00135962 -0.00114136 -0.00114119 -0.0012497 -0.00