# vtk DataFile Version 3.0
#This file was generated by the deal.II library on 2022/11/16 at 21:26:35
ASCII
DATASET UNSTRUCTURED_GRID

POINTS 4096 double
0 0.5 0
0.03125 0.5 0
0 0.53125 0
0.03125 0.53125 0
0.03125 0.5 0
0.0625 0.5 0
0.03125 0.53125 0
0.0625 0.53125 0
0 0.53125 0
0.03125 0.53125 0
0 0.5625 0
0.03125 0.5625 0
0.03125 0.53125 0
0.0625 0.53125 0
0.03125 0.5625 0
0.0625 0.5625 0
0.0625 0.5 0
0.09375 0.5 0
0.0625 0.53125 0
0.09375 0.53125 0
0.09375 0.5 0
0.125 0.5 0
0.09375 0.53125 0
0.125 0.53125 0
0.0625 0.53125 0
0.09375 0.53125 0
0.0625 0.5625 0
0.09375 0.5625 0
0.09375 0.53125 0
0.125 0.53125 0
0.09375 0.5625 0
0.125 0.5625 0
0 0.5625 0
0.03125 0.5625 0
0 0.59375 0
0.03125 0.59375 0
0.03125 0.5625 0
0.0625 0.5625 0
0.03125 0.59375 0
0.0625 0.59375 0
0 0.59375 0
0.03125 0.59375 0
0 0.625 0
0.03125 0.625 0
0.03125 0.59375 0
0.0625 0.59375 0
0.03125 0.625 0
0.0625 0.625 0
0.0625 0.5625 0
0.09375 0.5625 0
0.0625 0.59375 0
0.09375 0.59375 0
0.09375 0.5625 0
0.125 0.5625 0
0.09375 0.59375 0
0.125 0.59375 0
0.0625 0.59375 0
0.09375 0.59375 0
0.0625 0.625 0
0.09375 0.625 0
0.09375 0.59375 0
0.125 0.59375 0
0.09375 0.625 0
0.125 0.625 0
0.125 0.5 0
0.15625 0.5 0
0.125 0.53125 0
0.15625 0.53125 0
0.15625 0.5 0
0.1875 0.5 0
0.15625 0.53125 0
0.1875 0.53125 0
0.125 0.53125 0
0.15625 0.53125 0
0.125 0.5625 0
0.15625 0.5625 0
0.15625 0.53125 0
0.1875 0.53125 0
0.15625 0.5625 0
0.1875 0.5625 0
0.1875 0.5 0
0.21875 0.5 0
0.1875 0.53125 0
0.21875 0.53125 0
0.21875 0.5 0
0.25 0.5 0
0.21875 0.53125 0
0.25 0.53125 0
0.1875 0.53125 0
0.21875 0.53125 0
0.1875 0.5625 0
0.21875 0.5625 0
0.21875 0.53125 0
0.25 0.53125 0
0.21875 0.5625 0
0.25 0.5625 0
0.125 0.5625 0
0.15625 0.5625 0
0.125 0.59375 0
0.15625 0.59375 0
0.15625 0.5625 0
0.1875 0.5625 0
0.15625 0.59375 0
0.1875 0.59375 0
0.125 0.59375 0
0.15625 0.59375 0
0.125 0.625 0
0.15625 0.625 0
0.15625 0.59375 0
0.1875 0.59375 0
0.15625 0.625 0
0.1875 0.625 0
0.1875 0.5625 0
0.21875 0.5625 0
0.1875 0.59375 0
0.21875 0.59375 0
0.21875 0.5625 0
0.25 0.5625 0
0.21875 0.59375 0
0.25 0.59375 0
0.1875 0.59375 0
0.21875 0.59375 0
0.1875 0.625 0
0.21875 0.625 0
0.21875 0.59375 0
0.25 0.59375 0
0.21875 0.625 0
0.25 0.625 0
0 0.625 0
0.03125 0.625 0
0 0.65625 0
0.03125 0.65625 0
0.03125 0.625 0
0.0625 0.625 0
0.03125 0.65625 0
0.0625 0.65625 0
0 0.65625 0
0.03125 0.65625 0
0 0.6875 0
0.03125 0.6875 0
0.03125 0.65625 0
0.0625 0.65625 0
0.03125 0.6875 0
0.0625 0.6875 0
0.0625 0.625 0
0.09375 0.625 0
0.0625 0.65625 0
0.09375 0.65625 0
0.09375 0.625 0
0.125 0.625 0
0.09375 0.65625 0
0.125 0.65625 0
0.0625 0.65625 0
0.09375 0.65625 0
0.0625 0.6875 0
0.09375 0.6875 0
0.09375 0.65625 0
0.125 0.65625 0
0.09375 0.6875 0
0.125 0.6875 0
0 0.6875 0
0.03125 0.6875 0
0 0.71875 0
0.03125 0.71875 0
0.03125 0.6875 0
0.0625 0.6875 0
0.03125 0.71875 0
0.0625 0.71875 0
0 0.71875 0
0.03125 0.71875 0
0 0.75 0
0.03125 0.75 0
0.03125 0.71875 0
0.0625 0.71875 0
0.03125 0.75 0
0.0625 0.75 0
0.0625 0.6875 0
0.09375 0.6875 0
0.0625 0.71875 0
0.09375 0.71875 0
0.09375 0.6875 0
0.125 0.6875 0
0.09375 0.71875 0
0.125 0.71875 0
0.0625 0.71875 0
0.09375 0.71875 0
0.0625 0.75 0
0.09375 0.75 0
0.09375 0.71875 0
0.125 0.71875 0
0.09375 0.75 0
0.125 0.75 0
0.125 0.625 0
0.15625 0.625 0
0.125 0.65625 0
0.15625 0.65625 0
0.15625 0.625 0
0.1875 0.625 0
0.15625 0.65625 0
0.1875 0.65625 0
0.125 0.65625 0
0.15625 0.65625 0
0.125 0.6875 0
0.15625 0.6875 0
0.15625 0.65625 0
0.1875 0.65625 0
0.15625 0.6875 0
0.1875 0.6875 0
0.1875 0.625 0
0.21875 0.625 0
0.1875 0.65625 0
0.21875 0.65625 0
0.21875 0.625 0
0.25 0.625 0
0.21875 0.65625 0
0.25 0.65625 0
0.1875 0.65625 0
0.21875 0.65625 0
0.1875 0.6875 0
0.21875 0.6875 0
0.21875 0.65625 0
0.25 0.65625 0
0.21875 0.6875 0
0.25 0.6875 0
0.125 0.6875 0
0.15625 0.6875 0
0.125 0.71875 0
0.15625 0.71875 0
0.15625 0.6875 0
0.1875 0.6875 0
0.15625 0.71875 0
0.1875 0.71875 0
0.125 0.71875 0
0.15625 0.71875 0
0.125 0.75 0
0.15625 0.75 0
0.15625 0.71875 0
0.1875 0.71875 0
0.15625 0.75 0
0.1875 0.75 0
0.1875 0.6875 0
0.21875 0.6875 0
0.1875 0.71875 0
0.21875 0.71875 0
0.21875 0.6875 0
0.25 0.6875 0
0.21875 0.71875 0
0.25 0.71875 0
0.1875 0.71875 0
0.21875 0.71875 0
0.1875 0.75 0
0.21875 0.75 0
0.21875 0.71875 0
0.25 0.71875 0
0.21875 0.75 0
0.25 0.75 0
0.25 0.5 0
0.28125 0.5 0
0.25 0.53125 0
0.28125 0.53125 0
0.28125 0.5 0
0.3125 0.5 0
0.28125 0.53125 0
0.3125 0.53125 0
0.25 0.53125 0
0.28125 0.53125 0
0.25 0.5625 0
0.28125 0.5625 0
0.28125 0.53125 0
0.3125 0.53125 0
0.28125 0.5625 0
0.3125 0.5625 0
0.3125 0.5 0
0.34375 0.5 0
0.3125 0.53125 0
0.34375 0.53125 0
0.34375 0.5 0
0.375 0.5 0
0.34375 0.53125 0
0.375 0.53125 0
0.3125 0.53125 0
0.34375 0.53125 0
0.3125 0.5625 0
0.34375 0.5625 0
0.34375 0.53125 0
0.375 0.53125 0
0.34375 0.5625 0
0.375 0.5625 0
0.25 0.5625 0
0.28125 0.5625 0
0.25 0.59375 0
0.28125 0.59375 0
0.28125 0.5625 0
0.3125 0.5625 0
0.28125 0.59375 0
0.3125 0.59375 0
0.25 0.59375 0
0.28125 0.59375 0
0.25 0.625 0
0.28125 0.625 0
0.28125 0.59375 0
0.3125 0.59375 0
0.28125 0.625 0
0.3125 0.625 0
0.3125 0.5625 0
0.34375 0.5625 0
0.3125 0.59375 0
0.34375 0.59375 0
0.34375 0.5625 0
0.375 0.5625 0
0.34375 0.59375 0
0.375 0.59375 0
0.3125 0.59375 0
0.34375 0.59375 0
0.3125 0.625 0
0.34375 0.625 0
0.34375 0.59375 0
0.375 0.59375 0
0.34375 0.625 0
0.375 0.625 0
0.375 0.5 0
0.40625 0.5 0
0.375 0.53125 0
0.40625 0.53125 0
0.40625 0.5 0
0.4375 0.5 0
0.40625 0.53125 0
0.4375 0.53125 0
0.375 0.53125 0
0.40625 0.53125 0
0.375 0.5625 0
0.40625 0.5625 0
0.40625 0.53125 0
0.4375 0.53125 0
0.40625 0.5625 0
0.4375 0.5625 0
0.4375 0.5 0
0.46875 0.5 0
0.4375 0.53125 0
0.46875 0.53125 0
0.46875 0.5 0
0.5 0.5 0
0.46875 0.53125 0
0.5 0.53125 0
0.4375 0.53125 0
0.46875 0.53125 0
0.4375 0.5625 0
0.46875 0.5625 0
0.46875 0.53125 0
0.5 0.53125 0
0.46875 0.5625 0
0.5 0.5625 0
0.375 0.5625 0
0.40625 0.5625 0
0.375 0.59375 0
0.40625 0.59375 0
0.40625 0.5625 0
0.4375 0.5625 0
0.40625 0.59375 0
0.4375 0.59375 0
0.375 0.59375 0
0.40625 0.59375 0
0.375 0.625 0
0.40625 0.625 0
0.40625 0.59375 0
0.4375 0.59375 0
0.40625 0.625 0
0.4375 0.625 0
0.4375 0.5625 0
0.46875 0.5625 0
0.4375 0.59375 0
0.46875 0.59375 0
0.46875 0.5625 0
0.5 0.5625 0
0.46875 0.59375 0
0.5 0.59375 0
0.4375 0.59375 0
0.46875 0.59375 0
0.4375 0.625 0
0.46875 0.625 0
0.46875 0.59375 0
0.5 0.59375 0
0.46875 0.625 0
0.5 0.625 0
0.25 0.625 0
0.28125 0.625 0
0.25 0.65625 0
0.28125 0.65625 0
0.28125 0.625 0
0.3125 0.625 0
0.28125 0.65625 0
0.3125 0.65625 0
0.25 0.65625 0
0.28125 0.65625 0
0.25 0.6875 0
0.28125 0.6875 0
0.28125 0.65625 0
0.3125 0.65625 0
0.28125 0.6875 0
0.3125 0.6875 0
0.3125 0.625 0
0.34375 0.625 0
0.3125 0.65625 0
0.34375 0.65625 0
0.34375 0.625 0
0.375 0.625 0
0.34375 0.65625 0
0.375 0.65625 0
0.3125 0.65625 0
0.34375 0.65625 0
0.3125 0.6875 0
0.34375 0.6875 0
0.34375 0.65625 0
0.375 0.65625 0
0.34375 0.6875 0
0.375 0.6875 0
0.25 0.6875 0
0.28125 0.6875 0
0.25 0.71875 0
0.28125 0.71875 0
0.28125 0.6875 0
0.3125 0.6875 0
0.28125 0.71875 0
0.3125 0.71875 0
0.25 0.71875 0
0.28125 0.71875 0
0.25 0.75 0
0.28125 0.75 0
0.28125 0.71875 0
0.3125 0.71875 0
0.28125 0.75 0
0.3125 0.75 0
0.3125 0.6875 0
0.34375 0.6875 0
0.3125 0.71875 0
0.34375 0.71875 0
0.34375 0.6875 0
0.375 0.6875 0
0.34375 0.71875 0
0.375 0.71875 0
0.3125 0.71875 0
0.34375 0.71875 0
0.3125 0.75 0
0.34375 0.75 0
0.34375 0.71875 0
0.375 0.71875 0
0.34375 0.75 0
0.375 0.75 0
0.375 0.625 0
0.40625 0.625 0
0.375 0.65625 0
0.40625 0.65625 0
0.40625 0.625 0
0.4375 0.625 0
0.40625 0.65625 0
0.4375 0.65625 0
0.375 0.65625 0
0.40625 0.65625 0
0.375 0.6875 0
0.40625 0.6875 0
0.40625 0.65625 0
0.4375 0.65625 0
0.40625 0.6875 0
0.4375 0.6875 0
0.4375 0.625 0
0.46875 0.625 0
0.4375 0.65625 0
0.46875 0.65625 0
0.46875 0.625 0
0.5 0.625 0
0.46875 0.65625 0
0.5 0.65625 0
0.4375 0.65625 0
0.46875 0.65625 0
0.4375 0.6875 0
0.46875 0.6875 0
0.46875 0.65625 0
0.5 0.65625 0
0.46875 0.6875 0
0.5 0.6875 0
0.375 0.6875 0
0.40625 0.6875 0
0.375 0.71875 0
0.40625 0.71875 0
0.40625 0.6875 0
0.4375 0.6875 0
0.40625 0.71875 0
0.4375 0.71875 0
0.375 0.71875 0
0.40625 0.71875 0
0.375 0.75 0
0.40625 0.75 0
0.40625 0.71875 0
0.4375 0.71875 0
0.40625 0.75 0
0.4375 0.75 0
0.4375 0.6875 0
0.46875 0.6875 0
0.4375 0.71875 0
0.46875 0.71875 0
0.46875 0.6875 0
0.5 0.6875 0
0.46875 0.71875 0
0.5 0.71875 0
0.4375 0.71875 0
0.46875 0.71875 0
0.4375 0.75 0
0.46875 0.75 0
0.46875 0.71875 0
0.5 0.71875 0
0.46875 0.75 0
0.5 0.75 0
0 0.75 0
0.03125 0.75 0
0 0.78125 0
0.03125 0.78125 0
0.03125 0.75 0
0.0625 0.75 0
0.03125 0.78125 0
0.0625 0.78125 0
0 0.78125 0
0.03125 0.78125 0
0 0.8125 0
0.03125 0.8125 0
0.03125 0.78125 0
0.0625 0.78125 0
0.03125 0.8125 0
0.0625 0.8125 0
0.0625 0.75 0
0.09375 0.75 0
0.0625 0.78125 0
0.09375 0.78125 0
0.09375 0.75 0
0.125 0.75 0
0.09375 0.78125 0
0.125 0.78125 0
0.0625 0.78125 0
0.09375 0.78125 0
0.0625 0.8125 0
0.09375 0.8125 0
0.09375 0.78125 0
0.125 0.78125 0
0.09375 0.8125 0
0.125 0.8125 0
0 0.8125 0
0.03125 0.8125 0
0 0.84375 0
0.03125 0.84375 0
0.03125 0.8125 0
0.0625 0.8125 0
0.03125 0.84375 0
0.0625 0.84375 0
0 0.84375 0
0.03125 0.84375 0
0 0.875 0
0.03125 0.875 0
0.03125 0.84375 0
0.0625 0.84375 0
0.03125 0.875 0
0.0625 0.875 0
0.0625 0.8125 0
0.09375 0.8125 0
0.0625 0.84375 0
0.09375 0.84375 0
0.09375 0.8125 0
0.125 0.8125 0
0.09375 0.84375 0
0.125 0.84375 0
0.0625 0.84375 0
0.09375 0.84375 0
0.0625 0.875 0
0.09375 0.875 0
0.09375 0.84375 0
0.125 0.84375 0
0.09375 0.875 0
0.125 0.875 0
0.125 0.75 0
0.15625 0.75 0
0.125 0.78125 0
0.15625 0.78125 0
0.15625 0.75 0
0.1875 0.75 0
0.15625 0.78125 0
0.1875 0.78125 0
0.125 0.78125 0
0.15625 0.78125 0
0.125 0.8125 0
0.15625 0.8125 0
0.15625 0.78125 0
0.1875 0.78125 0
0.15625 0.8125 0
0.1875 0.8125 0
0.1875 0.75 0
0.21875 0.75 0
0.1875 0.78125 0
0.21875 0.78125 0
0.21875 0.75 0
0.25 0.75 0
0.21875 0.78125 0
0.25 0.78125 0
0.1875 0.78125 0
0.21875 0.78125 0
0.1875 0.8125 0
0.21875 0.8125 0
0.21875 0.78125 0
0.25 0.78125 0
0.21875 0.8125 0
0.25 0.8125 0
0.125 0.8125 0
0.15625 0.8125 0
0.125 0.84375 0
0.15625 0.84375 0
0.15625 0.8125 0
[...]
POINT_DATA 4096
SCALARS x_dis double 1
LOOKUP_TABLE default
-1.92572e-06 -1.92561e-06 1.95093e-06 1.9511e-06 -1.92561e-06 -1.9253e-06 1.9511e-06 1.95156e-06 1.95093e-06 1.9511e-06 9.49032e-06 9.49056e-06 1.9511e-06 1.95156e-06 9.49056e-06 9.49124e-06 -1.9253e-06 -1.92481e-06 1.95156e-06 1.95228e-06 -1.92481e-06 -1.92419e-06 1.95228e-06 1.95319e-06 1.95156e-06 1.95228e-06 9.49124e-06 9.49228e-06 1.95228e-06 1.95319e-06 9.49228e-06 9.49357e-06 9.49032e-06 9.49056e-06 2.02911e-06 2.02946e-06 9.49056e-06 9.49124e-06 2.02946e-06 2.03044e-06 2.02911e-06 2.02946e-06 -3.81844e-05 -3.81838e-05 2.02946e-06 2.03044e-06 -3.81838e-05 -3.81823e-05 9.49124e-06 9.49228e-06 2.03044e-06 2.03191e-06 9.49228e-06 9.49357e-06 2.03191e-06 2.0337e-06 2.03044e-06 2.03191e-06 -3.81823e-05 -3.81803e-05 2.03191e-06 2.0337e-06 -3.81803e-05 -3.81779e-05 -1.92419e-06 -1.92349e-06 1.95319e-06 1.9542e-06 -1.92349e-06 -1.92275e-06 1.9542e-06 1.95526e-06 1.95319e-06 1.9542e-06 9.49357e-06 9.495e-06 1.9542e-06 1.95526e-06 9.495e-06 9.49648e-06 -1.92275e-06 -1.92202e-06 1.95526e-06 1.95634e-06 -1.92202e-06 -1.92132e-06 1.95634e-06 1.9574e-06 1.95526e-06 1.95634e-06 9.49648e-06 9.49798e-06 1.95634e-06 1.9574e-06 9.49798e-06 9.49944e-06 9.49357e-06 9.495e-06 2.0337e-06 2.03565e-06 9.495e-06 9.49648e-06 2.03565e-06 2.03766e-06 2.0337e-06 2.03565e-06 -3.81779e-05 -3.81753e-05 2.03565e-06 2.03766e-06 -3.81753e-05 -3.81727e-05 9.49648e-06 9.49798e-06 2.03766e-06 2.03966e-06 9.49798e-06 9.49944e-06 2.03966e-06 2.04159e-06 2.03766e-06 2.03966e-06 -3.81727e-05 -3.81701e-05 2.03966e-06 2.04159e-06 -3.81701e-05 -3.81676e-05 -3.81844e-05 -3.81838e-05 -0.000111542 -0.000111541 -3.81838e-05 -3.81823e-05 -0.000111541 -0.000111539 -0.000111542 -0.000111541 -0.000206614 -0.000206611 -0.000111541 -0.000111539 -0.000206611 -0.000206608 -3.81823e-05 -3.81803e-05 -0.000111539 -0.000111536 -3.81803e-05 -3.81779e-05 -0.000111536 -0.000111533 -0.000111539 -0.000111536 -0.000206608 -0.000206604 -0.000111536 -0.000111533 -0.000206604 -0.0002066 -0.000206614 -0.000206611 -0.000311805 -0.0003118 -0.000206611 -0.000206608 -0.0003118 -0.000311796 -0.000311805 -0.0003118 -0.000420554 -0.000420548 -0.0003118 -0.000311796 -0.000420548 -0.000420542 -0.000206608 -0.000206604 -0.000311796 -0.000311791 -0.000206604 -0.0002066 -0.000311791 -0.000311786 -0.000311796 -0.000311791 -0.000420542 -0.000420536 -0.000311791 -0.000311786 -0.000420536 -0.00042053 -3.81779e-05 -3.81753e-05 -0.000111533 -0.000111529 -3.81753e-05 -3.81727e-05 -0.000111529 -0.000111526 -0.000111533 -0.000111529 -0.0002066 -0.000206596 -0.000111529 -0.000111526 -0.000206596 -0.000206592 -3.81727e-05 -3.81701e-05 -0.000111526 -0.000111523 -3.81701e-05 -3.81676e-05 -0.000111523 -0.00011152 -0.000111526 -0.000111523 -0.000206592 -0.000206588 -0.000111523 -0.00011152 -0.000206588 -0.000206584 -0.0002066 -0.000206596 -0.000311786 -0.000311781 -0.000206596 -0.000206592 -0.000311781 -0.000311776 -0.000311786 -0.000311781 -0.00042053 -0.000420524 -0.000311781 -0.000311776 -0.000420524 -0.000420518 -0.000206592 -0.000206588 -0.000311776 -0.000311771 -0.000206588 -0.000206584 -0.000311771 -0.000311767 -0.000311776 -0.000311771 -0.000420518 -0.000420513 -0.000311771 -0.000311767 -0.000420513 -0.000420509 -1.92132e-06 -1.92068e-06 1.9574e-06 1.9583e-06 -1.92068e-06 -1.92017e-06 1.9583e-06 1.95854e-06 1.9574e-06 1.9583e-06 9.49944e-06 9.50066e-06 1.9583e-06 1.95854e-06 9.50066e-06 9.50108e-06 -1.92017e-06 -1.91978e-06 1.95854e-06 1.95776e-06 -1.91978e-06 -1.91931e-06 1.95776e-06 1.95926e-06 1.95854e-06 1.95776e-06 9.50108e-06 9.50037e-06 1.95776e-06 1.95926e-06 9.50037e-06 9.50128e-06 9.49944e-06 9.50066e-06 2.04159e-06 2.0432e-06 9.50066e-06 9.50108e-06 2.0432e-06 2.04408e-06 2.04159e-06 2.0432e-06 -3.81676e-05 -3.81655e-05 2.0432e-06 2.04408e-06 -3.81655e-05 -3.8164e-05 9.50108e-06 9.50037e-06 2.04408e-06 2.04417e-06 9.50037e-06 9.50128e-06 2.04417e-06 2.04503e-06 2.04408e-06 2.04417e-06 -3.8164e-05 -3.81633e-05 2.04417e-06 2.04503e-06 -3.81633e-05 -3.81627e-05 -1.91931e-06 -1.9186e-06 1.95926e-06 1.97137e-06 -1.9186e-06 -1.91854e-06 1.97137e-06 1.98983e-06 1.95926e-06 1.97137e-06 9.50128e-06 9.51017e-06 1.97137e-06 1.98983e-06 9.51017e-06 9.52661e-06 -1.91854e-06 -1.92014e-06 1.98983e-06 1.96418e-06 -1.92014e-06 -1.9219e-06 1.96418e-06 1.75497e-06 1.98983e-06 1.96418e-06 9.52661e-06 9.54209e-06 1.96418e-06 1.75497e-06 9.54209e-06 9.63234e-06 9.50128e-06 9.51017e-06 2.04503e-06 2.04882e-06 9.51017e-06 9.52661e-06 2.04882e-06 2.05231e-06 2.04503e-06 2.04882e-06 -3.81627e-05 -3.81601e-05 2.04882e-06 2.05231e-06 -3.81601e-05 -3.81557e-05 9.52661e-06 9.54209e-06 2.05231e-06 2.05863e-06 9.54209e-06 9.63234e-06 2.05863e-06 2.06874e-06 2.05231e-06 2.05863e-06 -3.81557e-05 -3.81586e-05 2.05863e-06 2.06874e-06 -3.81586e-05 -3.8179e-05 -3.81676e-05 -3.81655e-05 -0.00011152 -0.000111517 -3.81655e-05 -3.8164e-05 -0.000111517 -0.000111515 -0.00011152 -0.000111517 -0.000206584 -0.000206581 -0.000111517 -0.000111515 -0.000206581 -0.000206578 -3.8164e-05 -3.81633e-05 -0.000111515 -0.000111513 -3.81633e-05 -3.81627e-05 -0.000111513 -0.000111513 -0.000111515 -0.000111513 -0.000206578 -0.000206576 -0.000111513 -0.000111513 -0.000206576 -0.000206574 -0.000206584 -0.000206581 -0.000311767 -0.000311763 -0.000206581 -0.000206578 -0.000311763 -0.00031176 -0.000311767 -0.000311763 -0.000420509 -0.000420504 -0.000311763 -0.00031176 -0.000420504 -0.000420501 -0.000206578 -0.000206576 -0.00031176 -0.000311758 -0.000206576 -0.000206574 -0.000311758 -0.000311755 -0.00031176 -0.000311758 -0.000420501 -0.000420498 -0.000311758 -0.000311755 -0.000420498 -0.000420496 -3.81627e-05 -3.81601e-05 -0.000111513 -0.000111512 -3.81601e-05 -3.81557e-05 -0.000111512 -0.00011151 -0.000111513 -0.000111512 -0.000206574 -0.000206574 -0.000111512 -0.00011151 -0.000206574 -0.000206574 -3.81557e-05 -3.81586e-05 -0.00011151 -0.000111505 -3.81586e-05 -3.8179e-05 -0.000111505 -0.000111502 -0.00011151 -0.000111505 -0.000206574 -0.000206573 -0.000111505 -0.000111502 -0.000206573 -0.000206568 -0.000206574 -0.000206574 -0.000311755 -0.000311753 -0.000206574 -0.000206574 -0.000311753 -0.000311753 -0.000311755 -0.000311753 -0.000420496 -0.000420493 -0.000311753 -0.000311753 -0.000420493 -0.000420491 -0.000206574 -0.000206573 -0.000311753 -0.000311752 -0.000206573 -0.000206568 -0.000311752 -0.000311752 -0.000311753 -0.000311752 -0.000420491 -0.00042049 -0.000311752 -0.000311752 -0.00042049 -0.000420489 -0.000420554 -0.000420548 -0.000530264 -0.000530257 -0.000420548 -0.000420542 -0.000530257 -0.000530249 -0.000530264 -0.000530257 -0.000640181 -0.000640171 -0.000530257 -0.000530249 -0.000640171 -0.000640161 -0.000420542 -0.000420536 -0.000530249 -0.000530241 -0.000420536 -0.00042053 -0.000530241 -0.000530234 -0.000530249 -0.000530241 -0.000640161 -0.000640152 -0.000530241 -0.000530234 -0.000640152 -0.000640144 -0.000640181 -0.000640171 -0.00075014 -0.000750128 -0.000640171 -0.000640161 -0.000750128 -0.000750116 -0.00075014 -0.000750128 -0.000860107 -0.000860093 -0.000750128 -0.000750116 -0.000860093 -0.00086008 -0.000640161 -0.000640152 -0.000750116 -0.000750106 -0.000640152 -0.000640144 -0.000750106 -0.000750098 -0.000750116 -0.000750106 -0.00086008 -0.000860069 -0.000750106 -0.000750098 -0.000860069 -0.00086006 -0.00042053 -0.000420524 -0.000530234 -0.000530228 -0.000420524 -0.000420518 -0.000530228 -0.000530222 -0.000530234 -0.000530228 -0.000640144 -0.000640137 -0.000530228 -0.000530222 -0.000640137 -0.000640131 -0.000420518 -0.000420513 -0.000530222 -0.000530216 -0.000420513 -0.000420509 -0.000530216 -0.000530211 -0.000530222 -0.000530216 -0.000640131 -0.000640125 -0.000530216 -0.000530211 -0.000640125 -0.00064012 -0.000640144 -0.000640137 -0.000750098 -0.00075009 -0.000640137 -0.000640131 -0.00075009 -0.000750084 -0.000750098 -0.00075009 -0.00086006 -0.000860052 -0.00075009 -0.000750084 -0.000860052 -0.000860046 -0.000640131 -0.000640125 -0.000750084 -0.000750078 -0.000640125 -0.00064012 -0.000750078 -0.000750073 -0.000750084 -0.000750078 -0.000860046 -0.000860041 -0.000750078 -0.000750073 -0.000860041 -0.000860037 -0.000860107 -0.000860093 -0.000970085 -0.000970067 -0.000860093 -0.00086008 -0.000970067 -0.000970053 -0.000970085 -0.000970067 -0.00108006 -0.00108004 -0.000970067 -0.000970053 -0.00108004 -0.00108003 -0.00086008 -0.000860069 -0.000970053 -0.000970042 -0.000860069 -0.00086006 -0.000970042 -0.000970033 -0.000970053 -0.000970042 -0.00108003 -0.00108002 -0.000970042 -0.000970033 -0.00108002 -0.00108001 -0.00108006 -0.00108004 -0.00119005 -0.00119002 -0.00108004 -0.00108003 -0.00119002 -0.00119001 -0.00119005 -0.00119002 -0.0013 -0.0013 -0.00119002 -0.00119001 -0.0013 -0.0013 -0.00108003 -0.00108002 -0.00119001 -0.00119001 -0.00108002 -0.00108001 -0.00119001 -0.00119 -0.00119001 -0.00119001 -0.0013 -0.0013 -0.00119001 -0.00119 -0.0013 -0.0013 -0.00086006 -0.000860052 -0.000970033 -0.000970026 -0.000860052 -0.000860046 -0.000970026 -0.000970021 -0.000970033 -0.000970026 -0.00108001 -0.00108001 -0.000970026 -0.000970021 -0.00108001 -0.00108 -0.000860046 -0.000860041 -0.000970021 -0.000970017 -0.000860041 -0.000860037 -0.000970017 -0.000970014 -0.000970021 -0.000970017 -0.00108 -0.00108 -0.000970017 -0.000970014 -0.00108 -0.00108 -0.00108001 -0.00108001 -0.00119 -0.00119 -0.00108001 -0.00108 -0.00119 -0.00119 -0.00119 -0.00119 -0.0013 -0.0013 -0.00119 -0.00119 -0.0013 -0.0013 -0.00108 -0.00108 -0.00119 -0.00119 -0.00108 -0.00108 -0.00119 -0.00119 -0.00119 -0.00119 -0.0013 -0.0013 -0.00119 -0.00119 -0.0013 -0.0013 -0.000420509 -0.000420504 -0.000530211 -0.000530207 -0.000420504 -0.000420501 -0.000530207 -0.000530203 -0.000530211 -0.000530207 -0.00064012 -0.000640116 -0.000530207 -0.000530203 -0.000640116 -0.000640112 -0.000420501 -0.000420498 -0.000530203 -0.0005302 -0.000420498 -0.000420496 -0.0005302 -0.000530197 -0.000530203 -0.0005302 -0.000640112 -0.000640109 -0.0005302 -0.000530197 -0.000640109 -0.000640106 -0.00064012 -0.000640116 -0.000750073 -0.000750069 -0.000640116 -0.000640112 -0.000750069 -0.000750066 -0.000750073 -0.000750069 -0.000860037 -0.000860034 -0.000750069 -0.000750066 -0.000860034 -0.000860031 -0.000640112 -0.000640109 -0.000750066 -0.000750063 -0.000640109 -0.000640106 -0.000750063 -0.00075006 -0.000750066 -0.000750063 -0.000860031 -0.000860028 -0.000750063 -0.00075006 -0.000860028 -0.000860026 -0.000420496 -0.000420493 -0.000530197 -0.000530195 -0.000420493 -0.000420491 -0.000530195 -0.000530193 -0.000530197 -0.000530195 -0.000640106 -0.000640104 -0.000530195 -0.000530193 -0.000640104 -0.000640102 -0.000420491 -0.00042049 -0.000530193 -0.000530192 -0.00042049 -0.000420489 -0.000530192 -0.00053019 -0.000530193 -0.000530192 -0.000640102 -0.000640101 -0.000530192 -0.00053019 -0.000640101 -0.000640099 -0.000640106 -0.000640104 -0.00075006 -0.000750058 -0.000640104 -0.000640102 -0.000750058 -0.000750056 -0.00075006 -0.000750058 -0.000860026 -0.000860024 -0.000750058 -0.000750056 -0.000860024 -0.000860022 -0.000640102 -0.000640101 -0.000750056 -0.000750055 -0.000640101 -0.000640099 -0.000750055 -0.000750053 -0.000750056 -0.000750055 -0.000860022 -0.00086002 -0.000750055 -0.000750053 -0.00086002 -0.000860019 -0.000860037 -0.000860034 -0.000970014 -0.000970011 -0.000860034 -0.000860031 -0.000970011 -0.000970009 -0.000970014 -0.000970011 -0.00108 -0.00108 -0.000970011 -0.000970009 -0.00108 -0.00108 -0.000860031 -0.000860028 -0.000970009 -0.000970007 -0.000860028 -0.000860026 -0.000970007 -0.000970005 -0.000970009 -0.000970007 -0.00108 -0.00107999 -0.000970007 -0.000970005 -0.00107999 -0.00107999 -0.00108 -0.00108 -0.00119 -0.00118999 -0.00108 -0.00108 -0.00118999 -0.00118999 -0.00119 -0.00118999 -0.0013 -0.0013 -0.00118999 -0.00118999 -0.0013 -0.0013 -0.00108 -0.00107999 -0.00118999 -0.00118999 -0.00107999 -0.00107999 -0.00118999 -0.00118999 -0.00118999 -0.00118999 -0.0013 -0.0013 -0.00118999 -0.00118999 -0.0013 -0.0013 -0.000860026 -0.000860024 -0.000970005 -0.000970003 -0.000860024 -0.000860022 -0.000970003 -0.000970002 -0.000970005 -0.000970003 -0.00107999 -0.00107999 -0.000970003 -0.000970002 -0.00107999 -0.00107999 -0.000860022 -0.00086002 -0.000970002 -0.00097 -0.00086002 -0.000860019 -0.00097 -0.000969999 -0.000970002 -0.00097 -0.00107999 -0.00107999 -0.00097 -0.000969999 -0.00107999 -0.00107999 -0.00107999 -0.00107999 -0.00118999 -0.00118999 -0.00107999 -0.00107999 -0.00118999 -0.00118999 -0.00118999 -0.00118999 -0.0013 -0.0013 -0.00118999 -0.00118999 -0.0013 -0.0013 -0.00107999 -0.00107999 -0.00118999 -0.00118999 -0.00107999 -0.00107999 -0.00118999 -0.00118999 -0.00118999 -0.00118999 -0.0013 -0.0013 -0.00118999 -0.00118999 -0.0013 -0.0013 -1.9219e-06 -3.15082e-06 1.75497e-06 1.62486e-06 -3.15082e-06 -3.8242e-06 1.62486e-06 1.48383e-06 1.75497e-06 1.62486e-06 9.63234e-06 9.77487e-06 1.62486e-06 1.48383e-06 9.77487e-06 9.88513e-06 -3.8242e-06 -3.94704e-06 1.48383e-06 1.46341e-06 -3.94704e-06 -3.88872e-06 1.46341e-06 1.52556e-06 1.48383e-06 1.46341e-06 9.88513e-06 9.9164e-06 1.46341e-06 1.52556e-06 9.9164e-06 9.93447e-06 9.63234e-06 9.77487e-06 2.06874e-06 2.07593e-06 9.77487e-06 9.88513e-06 2.07593e-06 2.06282e-06 2.06874e-06 2.07593e-06 -3.8179e-05 -3.82133e-05 2.07593e-06 2.06282e-06 -3.82133e-05 -3.82397e-05 9.88513e-06 9.9164e-06 2.06282e-06 2.04747e-06 9.9164e-06 9.93447e-06 2.04747e-06 2.04623e-06 2.06282e-06 2.04747e-06 -3.82397e-05 -3.82442e-05 2.04747e-06 2.04623e-06 -3.82442e-05 -3.82356e-05 -3.88872e-06 -3.83592e-06 1.52556e-06 1.57105e-06 -3.83592e-06 -3.82089e-06 1.57105e-06 1.57509e-06 1.52556e-06 1.57105e-06 9.93447e-06 9.94827e-06 1.57105e-06 1.57509e-06 9.94827e-06 9.94925e-06 -3.82089e-06 -3.82757e-06 1.57509e-06 1.56627e-06 -3.82757e-06 -3.83364e-06 1.56627e-06 1.56311e-06 1.57509e-06 1.56627e-06 9.94925e-06 9.94565e-06 1.56627e-06 1.56311e-06 9.94565e-06 9.94472e-06 9.93447e-06 9.94827e-06 2.04623e-06 2.05276e-06 9.94827e-06 9.94925e-06 2.05276e-06 2.05507e-06 2.04623e-06 2.05276e-06 -3.82356e-05 -3.823e-05 2.05276e-06 2.05507e-06 -3.823e-05 -3.82299e-05 9.94925e-06 9.94565e-06 2.05507e-06 2.05401e-06 9.94565e-06 9.94472e-06 2.05401e-06 2.0538e-06 2.05507e-06 2.05401e-06 -3.82299e-05 -3.82306e-05 2.05401e-06 2.0538e-06 -3.82306e-05 -3.82294e-05 -3.8179e-05 -3.82133e-05 -0.000111502 -0.000111498 -3.82133e-05 -3.82397e-05 -0.000111498 -0.00011149 -0.000111502 -0.000111498 -0.000206568 -0.000206562 -0.000111498 -0.00011149 -0.000206562 -0.000206557 -3.82397e-05 -3.82442e-05 -0.00011149 -0.000111481 -3.82442e-05 -3.82356e-05 -0.000111481 -0.000111476 -0.00011149 -0.000111481 -0.000206557 -0.000206556 -0.000111481 -0.000111476 -0.000206556 -0.000206557 -0.000206568 -0.000206562 -0.000311752 -0.000311752 -0.000206562 -0.000206557 -0.000311752 -0.000311752 -0.000311752 -0.000311752 -0.000420489 -0.000420488 -0.000311752 -0.000311752 -0.000420488 -0.000420486 -0.000206557 -0.000206556 -0.000311752 -0.000311752 -0.000206556 -0.000206557 -0.000311752 -0.000311751 -0.000311752 -0.000311752 -0.000420486 -0.000420484 -0.000311752 -0.000311751 -0.000420484 -0.000420482 -3.82356e-05 -3.823e-05 -0.000111476 -0.000111476 -3.823e-05 -3.82299e-05 -0.000111476 -0.000111477 -0.000111476 -0.000111476 -0.000206557 -0.000206557 -0.000111476 -0.000111477 -0.000206557 -0.000206555 -3.82299e-05 -3.82306e-05 -0.000111477 -0.000111476 -3.82306e-05 -3.82294e-05 -0.000111476 -0.000111473 -0.000111477 -0.000111476 -0.000206555 -0.000206552 -0.000111476 -0.000111473 -0.000206552 -0.000206549 -0.000206557 -0.000206557 -0.000311751 -0.000311749 -0.000206557 -0.000206555 -0.000311749 -0.000311746 -0.000311751 -0.000311749 -0.000420482 -0.000420479 -0.000311749 -0.000311746 -0.000420479 -0.000420476 -0.000206555 -0.000206552 -0.000311746 -0.000311742 -0.000206552 -0.000206549 -0.000311742 -0.000311739 -0.000311746 -0.000311742 -0.000420476 -0.000420473 -0.000311742 -0.000311739 -0.000420473 -0.000420469 -3.83364e-06 -3.83252e-06 1.56311e-06 1.56493e-06 -3.83252e-06 -3.82928e-06 1.56493e-06 1.56731e-06 1.56311e-06 1.56493e-06 9.94472e-06 9.9461e-06 1.56493e-06 1.56731e-06 9.9461e-06 9.94798e-06 -3.82928e-06 -3.8272e-06 1.56731e-06 1.5688e-06 -3.8272e-06 -3.82587e-06 1.5688e-06 1.56986e-06 1.56731e-06 1.5688e-06 9.94798e-06 9.94958e-06 1.5688e-06 1.56986e-06 9.94958e-06 9.95089e-06 9.94472e-06 9.9461e-06 2.0538e-06 2.05537e-06 9.9461e-06 9.94798e-06 2.05537e-06 2.05765e-06 2.0538e-06 2.05537e-06 -3.82294e-05 -3.82268e-05 2.05537e-06 2.05765e-06 -3.82268e-05 -3.82239e-05 9.94798e-06 9.94958e-06 2.05765e-06 2.05973e-06 9.94958e-06 9.95089e-06 2.05973e-06 2.06147e-06 2.05765e-06 2.05973e-06 -3.82239e-05 -3.82214e-05 2.05973e-06 2.06147e-06 -3.82214e-05 -3.8219e-05 -3.82587e-06 -3.82464e-06 1.56986e-06 1.57088e-06 -3.82464e-06 -3.82355e-06 1.57088e-06 1.57178e-06 1.56986e-06 1.57088e-06 9.95089e-06 9.95205e-06 1.57088e-06 1.57178e-06 9.95205e-06 9.95304e-06 -3.82355e-06 -3.82282e-06 1.57178e-06 1.57237e-06 -3.82282e-06 -3.82258e-06 1.57237e-06 1.57257e-06 1.57178e-06 1.57237e-06 9.95304e-06 9.9537e-06 1.57237e-06 1.57257e-06 9.9537e-06 9.95393e-06 9.95089e-06 9.95205e-06 2.06147e-06 2.06305e-06 9.95205e-06 9.95304e-06 2.06305e-06 2.0644e-06 2.06147e-06 2.06305e-06 -3.8219e-05 -3.82167e-05 2.06305e-06 2.0644e-06 -3.82167e-05 -3.82148e-05 9.95304e-06 9.9537e-06 2.0644e-06 2.06533e-06 9.9537e-06 9.95393e-06 2.06533e-06 2.06566e-06 2.0644e-06 2.06533e-06 -3.82148e-05 -3.82133e-05 2.06533e-06 2.06566e-06 -3.82133e-05 -3.82128e-05 -3.82294e-05 -3.82268e-05 -0.000111473 -0.00011147 -3.82268e-05 -3.82239e-05 -0.00011147 -0.000111466 -0.000111473 -0.00011147 -0.000206549 -0.000206545 -0.00011147 -0.000111466 -0.000206545 -0.000206541 -3.82239e-05 -3.82214e-05 -0.000111466 -0.000111463 -3.82214e-05 -3.8219e-05 -0.000111463 -0.00011146 -0.000111466 -0.000111463 -0.000206541 -0.000206537 -0.000111463 -0.00011146 -0.000206537 -0.000206533 -0.000206549 -0.000206545 -0.000311739 -0.000311734 -0.000206545 -0.000206541 -0.000311734 -0.00031173 -0.000311739 -0.000311734 -0.000420469 -0.000420464 -0.000311734 -0.00031173 -0.000420464 -0.000420459 -0.000206541 -0.000206537 -0.00031173 -0.000311725 -0.000206537 -0.000206533 -0.000311725 -0.00031172 -0.00031173 -0.000311725 -0.000420459 -0.000420453 -0.000311725 -0.00031172 -0.000420453 -0.000420448 -3.8219e-05 -3.82167e-05 -0.00011146 -0.000111457 -3.82167e-05 -3.82148e-05 -0.000111457 -0.000111454 -0.00011146 -0.000111457 -0.000206533 -0.000206529 -0.000111457 -0.000111454 -0.000206529 -0.000206525 -3.82148e-05 -3.82133e-05 -0.000111454 -0.000111452 -3.82133e-05 -3.82128e-05 -0.000111452 -0.00011145 -0.000111454 -0.000111452 -0.000206525 -0.000206522 -0.000111452 -0.00011145 -0.000206522 -0.000206519 -0.000206533 -0.000206529 -0.00031172 -0.000311715 -0.000206529 -0.000206525 -0.000311715 -0.00031171 -0.00031172 -0.000311715 -0.000420448 -0.000420441 -0.000311715 -0.00031171 -0.000420441 -0.000420435 -0.000206525 -0.000206522 -0.00031171 -0.000311705 -0.000206522 -0.000206519 -0.000311705 -0.000311701 -0.00031171 -0.000311705 -0.000420435 -0.000420429 -0.000311705 -0.000311701 -0.000420429 -0.000420423 -0.000420489 -0.000420488 -0.00053019 -0.000530189 -0.000420488 -0.000420486 -0.000530189 -0.000530187 -0.00053019 -0.000530189 -0.000640099 -0.000640098 -0.000530189 -0.000530187 -0.000640098 -0.000640096 -0.000420486 -0.000420484 -0.000530187 -0.000530185 -0.000420484 -0.000420482 -0.000530185 -0.000530183 -0.000530187 -0.000530185 -0.000640096 -0.000640094 -0.000530185 -0.000530183 -0.000640094 -0.000640092 -0.000640099 -0.000640098 -0.000750053 -0.000750051 -0.000640098 -0.000640096 -0.000750051 -0.00075005 -0.000750053 -0.000750051 -0.000860019 -0.000860017 -0.000750051 -0.00075005 -0.000860017 -0.000860016 -0.000640096 -0.000640094 -0.00075005 -0.000750048 -0.000640094 -0.000640092 -0.000750048 -0.000750046 -0.00075005 -0.000750048 -0.000860016 -0.000860014 -0.000750048 -0.000750046 -0.000860014 -0.000860012 -0.000420482 -0.000420479 -0.000530183 -0.00053018 -0.000420479 -0.000420476 -0.00053018 -0.000530177 -0.000530183 -0.00053018 -0.00064009