# vtk DataFile Version 3.0
#This file was generated by the deal.II library on 2022/11/16 at 21:30:48
ASCII
DATASET UNSTRUCTURED_GRID

POINTS 4096 double
0 0.5 0
0.03125 0.5 0
0 0.53125 0
0.03125 0.53125 0
0.03125 0.5 0
0.0625 0.5 0
0.03125 0.53125 0
0.0625 0.53125 0
0 0.53125 0
0.03125 0.53125 0
0 0.5625 0
0.03125 0.5625 0
0.03125 0.53125 0
0.0625 0.53125 0
0.03125 0.5625 0
0.0625 0.5625 0
0.0625 0.5 0
0.09375 0.5 0
0.0625 0.53125 0
0.09375 0.53125 0
0.09375 0.5 0
0.125 0.5 0
0.09375 0.53125 0
0.125 0.53125 0
0.0625 0.53125 0
0.09375 0.53125 0
0.0625 0.5625 0
0.09375 0.5625 0
0.09375 0.53125 0
0.125 0.53125 0
0.09375 0.5625 0
0.125 0.5625 0
0 0.5625 0
0.03125 0.5625 0
0 0.59375 0
0.03125 0.59375 0
0.03125 0.5625 0
0.0625 0.5625 0
0.03125 0.59375 0
0.0625 0.59375 0
0 0.59375 0
0.03125 0.59375 0
0 0.625 0
0.03125 0.625 0
0.03125 0.59375 0
0.0625 0.59375 0
0.03125 0.625 0
0.0625 0.625 0
0.0625 0.5625 0
0.09375 0.5625 0
0.0625 0.59375 0
0.09375 0.59375 0
0.09375 0.5625 0
0.125 0.5625 0
0.09375 0.59375 0
0.125 0.59375 0
0.0625 0.59375 0
0.09375 0.59375 0
0.0625 0.625 0
0.09375 0.625 0
0.09375 0.59375 0
0.125 0.59375 0
0.09375 0.625 0
0.125 0.625 0
0.125 0.5 0
0.15625 0.5 0
0.125 0.53125 0
0.15625 0.53125 0
0.15625 0.5 0
0.1875 0.5 0
0.15625 0.53125 0
0.1875 0.53125 0
0.125 0.53125 0
0.15625 0.53125 0
0.125 0.5625 0
0.15625 0.5625 0
0.15625 0.53125 0
0.1875 0.53125 0
0.15625 0.5625 0
0.1875 0.5625 0
0.1875 0.5 0
0.21875 0.5 0
0.1875 0.53125 0
0.21875 0.53125 0
0.21875 0.5 0
0.25 0.5 0
0.21875 0.53125 0
0.25 0.53125 0
0.1875 0.53125 0
0.21875 0.53125 0
0.1875 0.5625 0
0.21875 0.5625 0
0.21875 0.53125 0
0.25 0.53125 0
0.21875 0.5625 0
0.25 0.5625 0
0.125 0.5625 0
0.15625 0.5625 0
0.125 0.59375 0
0.15625 0.59375 0
0.15625 0.5625 0
0.1875 0.5625 0
0.15625 0.59375 0
0.1875 0.59375 0
0.125 0.59375 0
0.15625 0.59375 0
0.125 0.625 0
0.15625 0.625 0
0.15625 0.59375 0
0.1875 0.59375 0
0.15625 0.625 0
0.1875 0.625 0
0.1875 0.5625 0
0.21875 0.5625 0
0.1875 0.59375 0
0.21875 0.59375 0
0.21875 0.5625 0
0.25 0.5625 0
0.21875 0.59375 0
0.25 0.59375 0
0.1875 0.59375 0
0.21875 0.59375 0
0.1875 0.625 0
0.21875 0.625 0
0.21875 0.59375 0
0.25 0.59375 0
0.21875 0.625 0
0.25 0.625 0
0 0.625 0
0.03125 0.625 0
0 0.65625 0
0.03125 0.65625 0
0.03125 0.625 0
0.0625 0.625 0
0.03125 0.65625 0
0.0625 0.65625 0
0 0.65625 0
0.03125 0.65625 0
0 0.6875 0
0.03125 0.6875 0
0.03125 0.65625 0
0.0625 0.65625 0
0.03125 0.6875 0
0.0625 0.6875 0
0.0625 0.625 0
0.09375 0.625 0
0.0625 0.65625 0
0.09375 0.65625 0
0.09375 0.625 0
0.125 0.625 0
0.09375 0.65625 0
0.125 0.65625 0
0.0625 0.65625 0
0.09375 0.65625 0
0.0625 0.6875 0
0.09375 0.6875 0
0.09375 0.65625 0
0.125 0.65625 0
0.09375 0.6875 0
0.125 0.6875 0
0 0.6875 0
0.03125 0.6875 0
0 0.71875 0
0.03125 0.71875 0
0.03125 0.6875 0
0.0625 0.6875 0
0.03125 0.71875 0
0.0625 0.71875 0
0 0.71875 0
0.03125 0.71875 0
0 0.75 0
0.03125 0.75 0
0.03125 0.71875 0
0.0625 0.71875 0
0.03125 0.75 0
0.0625 0.75 0
0.0625 0.6875 0
0.09375 0.6875 0
0.0625 0.71875 0
0.09375 0.71875 0
0.09375 0.6875 0
0.125 0.6875 0
0.09375 0.71875 0
0.125 0.71875 0
0.0625 0.71875 0
0.09375 0.71875 0
0.0625 0.75 0
0.09375 0.75 0
0.09375 0.71875 0
0.125 0.71875 0
0.09375 0.75 0
0.125 0.75 0
0.125 0.625 0
0.15625 0.625 0
0.125 0.65625 0
0.15625 0.65625 0
0.15625 0.625 0
0.1875 0.625 0
0.15625 0.65625 0
0.1875 0.65625 0
0.125 0.65625 0
0.15625 0.65625 0
0.125 0.6875 0
0.15625 0.6875 0
0.15625 0.65625 0
0.1875 0.65625 0
0.15625 0.6875 0
0.1875 0.6875 0
0.1875 0.625 0
0.21875 0.625 0
0.1875 0.65625 0
0.21875 0.65625 0
0.21875 0.625 0
0.25 0.625 0
0.21875 0.65625 0
0.25 0.65625 0
0.1875 0.65625 0
0.21875 0.65625 0
0.1875 0.6875 0
0.21875 0.6875 0
0.21875 0.65625 0
0.25 0.65625 0
0.21875 0.6875 0
0.25 0.6875 0
0.125 0.6875 0
0.15625 0.6875 0
0.125 0.71875 0
0.15625 0.71875 0
0.15625 0.6875 0
0.1875 0.6875 0
0.15625 0.71875 0
0.1875 0.71875 0
0.125 0.71875 0
0.15625 0.71875 0
0.125 0.75 0
0.15625 0.75 0
0.15625 0.71875 0
0.1875 0.71875 0
0.15625 0.75 0
0.1875 0.75 0
0.1875 0.6875 0
0.21875 0.6875 0
0.1875 0.71875 0
0.21875 0.71875 0
0.21875 0.6875 0
0.25 0.6875 0
0.21875 0.71875 0
0.25 0.71875 0
0.1875 0.71875 0
0.21875 0.71875 0
0.1875 0.75 0
0.21875 0.75 0
0.21875 0.71875 0
0.25 0.71875 0
0.21875 0.75 0
0.25 0.75 0
0.25 0.5 0
0.28125 0.5 0
0.25 0.53125 0
0.28125 0.53125 0
0.28125 0.5 0
0.3125 0.5 0
0.28125 0.53125 0
0.3125 0.53125 0
0.25 0.53125 0
0.28125 0.53125 0
0.25 0.5625 0
0.28125 0.5625 0
0.28125 0.53125 0
0.3125 0.53125 0
0.28125 0.5625 0
0.3125 0.5625 0
0.3125 0.5 0
0.34375 0.5 0
0.3125 0.53125 0
0.34375 0.53125 0
0.34375 0.5 0
0.375 0.5 0
0.34375 0.53125 0
0.375 0.53125 0
0.3125 0.53125 0
0.34375 0.53125 0
0.3125 0.5625 0
0.34375 0.5625 0
0.34375 0.53125 0
0.375 0.53125 0
0.34375 0.5625 0
0.375 0.5625 0
0.25 0.5625 0
0.28125 0.5625 0
0.25 0.59375 0
0.28125 0.59375 0
0.28125 0.5625 0
0.3125 0.5625 0
0.28125 0.59375 0
0.3125 0.59375 0
0.25 0.59375 0
0.28125 0.59375 0
0.25 0.625 0
0.28125 0.625 0
0.28125 0.59375 0
0.3125 0.59375 0
0.28125 0.625 0
0.3125 0.625 0
0.3125 0.5625 0
0.34375 0.5625 0
0.3125 0.59375 0
0.34375 0.59375 0
0.34375 0.5625 0
0.375 0.5625 0
0.34375 0.59375 0
0.375 0.59375 0
0.3125 0.59375 0
0.34375 0.59375 0
0.3125 0.625 0
0.34375 0.625 0
0.34375 0.59375 0
0.375 0.59375 0
0.34375 0.625 0
0.375 0.625 0
0.375 0.5 0
0.40625 0.5 0
0.375 0.53125 0
0.40625 0.53125 0
0.40625 0.5 0
0.4375 0.5 0
0.40625 0.53125 0
0.4375 0.53125 0
0.375 0.53125 0
0.40625 0.53125 0
0.375 0.5625 0
0.40625 0.5625 0
0.40625 0.53125 0
0.4375 0.53125 0
0.40625 0.5625 0
0.4375 0.5625 0
0.4375 0.5 0
0.46875 0.5 0
0.4375 0.53125 0
0.46875 0.53125 0
0.46875 0.5 0
0.5 0.5 0
0.46875 0.53125 0
0.5 0.53125 0
0.4375 0.53125 0
0.46875 0.53125 0
0.4375 0.5625 0
0.46875 0.5625 0
0.46875 0.53125 0
0.5 0.53125 0
0.46875 0.5625 0
0.5 0.5625 0
0.375 0.5625 0
0.40625 0.5625 0
0.375 0.59375 0
0.40625 0.59375 0
0.40625 0.5625 0
0.4375 0.5625 0
0.40625 0.59375 0
0.4375 0.59375 0
0.375 0.59375 0
0.40625 0.59375 0
0.375 0.625 0
0.40625 0.625 0
0.40625 0.59375 0
0.4375 0.59375 0
0.40625 0.625 0
0.4375 0.625 0
0.4375 0.5625 0
0.46875 0.5625 0
0.4375 0.59375 0
0.46875 0.59375 0
0.46875 0.5625 0
0.5 0.5625 0
0.46875 0.59375 0
0.5 0.59375 0
0.4375 0.59375 0
0.46875 0.59375 0
0.4375 0.625 0
0.46875 0.625 0
0.46875 0.59375 0
0.5 0.59375 0
0.46875 0.625 0
0.5 0.625 0
0.25 0.625 0
0.28125 0.625 0
0.25 0.65625 0
0.28125 0.65625 0
0.28125 0.625 0
0.3125 0.625 0
0.28125 0.65625 0
0.3125 0.65625 0
0.25 0.65625 0
0.28125 0.65625 0
0.25 0.6875 0
0.28125 0.6875 0
0.28125 0.65625 0
0.3125 0.65625 0
0.28125 0.6875 0
0.3125 0.6875 0
0.3125 0.625 0
0.34375 0.625 0
0.3125 0.65625 0
0.34375 0.65625 0
0.34375 0.625 0
0.375 0.625 0
0.34375 0.65625 0
0.375 0.65625 0
0.3125 0.65625 0
0.34375 0.65625 0
0.3125 0.6875 0
0.34375 0.6875 0
0.34375 0.65625 0
0.375 0.65625 0
0.34375 0.6875 0
0.375 0.6875 0
0.25 0.6875 0
0.28125 0.6875 0
0.25 0.71875 0
0.28125 0.71875 0
0.28125 0.6875 0
0.3125 0.6875 0
0.28125 0.71875 0
0.3125 0.71875 0
0.25 0.71875 0
0.28125 0.71875 0
0.25 0.75 0
0.28125 0.75 0
0.28125 0.71875 0
0.3125 0.71875 0
0.28125 0.75 0
0.3125 0.75 0
0.3125 0.6875 0
0.34375 0.6875 0
0.3125 0.71875 0
0.34375 0.71875 0
0.34375 0.6875 0
0.375 0.6875 0
0.34375 0.71875 0
0.375 0.71875 0
0.3125 0.71875 0
0.34375 0.71875 0
0.3125 0.75 0
0.34375 0.75 0
0.34375 0.71875 0
0.375 0.71875 0
0.34375 0.75 0
0.375 0.75 0
0.375 0.625 0
0.40625 0.625 0
0.375 0.65625 0
0.40625 0.65625 0
0.40625 0.625 0
0.4375 0.625 0
0.40625 0.65625 0
0.4375 0.65625 0
0.375 0.65625 0
0.40625 0.65625 0
0.375 0.6875 0
0.40625 0.6875 0
0.40625 0.65625 0
0.4375 0.65625 0
0.40625 0.6875 0
0.4375 0.6875 0
0.4375 0.625 0
0.46875 0.625 0
0.4375 0.65625 0
0.46875 0.65625 0
0.46875 0.625 0
0.5 0.625 0
0.46875 0.65625 0
0.5 0.65625 0
0.4375 0.65625 0
0.46875 0.65625 0
0.4375 0.6875 0
0.46875 0.6875 0
0.46875 0.65625 0
0.5 0.65625 0
0.46875 0.6875 0
0.5 0.6875 0
0.375 0.6875 0
0.40625 0.6875 0
0.375 0.71875 0
0.40625 0.71875 0
0.40625 0.6875 0
0.4375 0.6875 0
0.40625 0.71875 0
0.4375 0.71875 0
0.375 0.71875 0
0.40625 0.71875 0
0.375 0.75 0
0.40625 0.75 0
0.40625 0.71875 0
0.4375 0.71875 0
0.40625 0.75 0
0.4375 0.75 0
0.4375 0.6875 0
0.46875 0.6875 0
0.4375 0.71875 0
0.46875 0.71875 0
0.46875 0.6875 0
0.5 0.6875 0
0.46875 0.71875 0
0.5 0.71875 0
0.4375 0.71875 0
0.46875 0.71875 0
0.4375 0.75 0
0.46875 0.75 0
0.46875 0.71875 0
0.5 0.71875 0
0.46875 0.75 0
0.5 0.75 0
0 0.75 0
0.03125 0.75 0
0 0.78125 0
0.03125 0.78125 0
0.03125 0.75 0
0.0625 0.75 0
0.03125 0.78125 0
0.0625 0.78125 0
0 0.78125 0
0.03125 0.78125 0
0 0.8125 0
0.03125 0.8125 0
0.03125 0.78125 0
0.0625 0.78125 0
0.03125 0.8125 0
0.0625 0.8125 0
0.0625 0.75 0
0.09375 0.75 0
0.0625 0.78125 0
0.09375 0.78125 0
0.09375 0.75 0
0.125 0.75 0
0.09375 0.78125 0
0.125 0.78125 0
0.0625 0.78125 0
0.09375 0.78125 0
0.0625 0.8125 0
0.09375 0.8125 0
0.09375 0.78125 0
0.125 0.78125 0
0.09375 0.8125 0
0.125 0.8125 0
0 0.8125 0
0.03125 0.8125 0
0 0.84375 0
0.03125 0.84375 0
0.03125 0.8125 0
0.0625 0.8125 0
0.03125 0.84375 0
0.0625 0.84375 0
0 0.84375 0
0.03125 0.84375 0
0 0.875 0
0.03125 0.875 0
0.03125 0.84375 0
0.0625 0.84375 0
0.03125 0.875 0
0.0625 0.875 0
0.0625 0.8125 0
0.09375 0.8125 0
0.0625 0.84375 0
0.09375 0.84375 0
0.09375 0.8125 0
0.125 0.8125 0
0.09375 0.84375 0
0.125 0.84375 0
0.0625 0.84375 0
0.09375 0.84375 0
0.0625 0.875 0
0.09375 0.875 0
0.09375 0.84375 0
0.125 0.84375 0
0.09375 0.875 0
0.125 0.875 0
0.125 0.75 0
0.15625 0.75 0
0.125 0.78125 0
0.15625 0.78125 0
0.15625 0.75 0
0.1875 0.75 0
0.15625 0.78125 0
0.1875 0.78125 0
0.125 0.78125 0
0.15625 0.78125 0
0.125 0.8125 0
0.15625 0.8125 0
0.15625 0.78125 0
0.1875 0.78125 0
0.15625 0.8125 0
0.1875 0.8125 0
0.1875 0.75 0
0.21875 0.75 0
0.1875 0.78125 0
0.21875 0.78125 0
0.21875 0.75 0
0.25 0.75 0
0.21875 0.78125 0
0.25 0.78125 0
0.1875 0.78125 0
0.21875 0.78125 0
0.1875 0.8125 0
0.21875 0.8125 0
0.21875 0.78125 0
0.25 0.78125 0
0.21875 0.8125 0
0.25 0.8125 0
0.125 0.8125 0
0.15625 0.8125 0
0.125 0.84375 0
0.15625 0.84375 0
0.15625 0.8125 0
[...]
POINT_DATA 4096
SCALARS x_dis double 1
LOOKUP_TABLE default
-8.24155e-05 -8.24143e-05 -0.000166601 -0.000166599 -8.24143e-05 -8.24124e-05 -0.000166599 -0.000166596 -0.000166601 -0.000166599 -0.000265734 -0.000265729 -0.000166599 -0.000166596 -0.000265729 -0.000265725 -8.24124e-05 -8.24098e-05 -0.000166596 -0.000166592 -8.24098e-05 -8.24066e-05 -0.000166592 -0.000166587 -0.000166596 -0.000166592 -0.000265725 -0.00026572 -0.000166592 -0.000166587 -0.00026572 -0.000265714 -0.000265734 -0.000265729 -0.000371907 -0.000371901 -0.000265729 -0.000265725 -0.000371901 -0.000371895 -0.000371907 -0.000371901 -0.000480748 -0.000480741 -0.000371901 -0.000371895 -0.000480741 -0.000480734 -0.000265725 -0.00026572 -0.000371895 -0.000371889 -0.00026572 -0.000265714 -0.000371889 -0.000371881 -0.000371895 -0.000371889 -0.000480734 -0.000480726 -0.000371889 -0.000371881 -0.000480726 -0.000480718 -8.24066e-05 -8.2403e-05 -0.000166587 -0.000166583 -8.2403e-05 -8.23994e-05 -0.000166583 -0.000166581 -0.000166587 -0.000166583 -0.000265714 -0.000265708 -0.000166583 -0.000166581 -0.000265708 -0.000265707 -8.23994e-05 -8.23961e-05 -0.000166581 -0.000166582 -8.23961e-05 -8.23931e-05 -0.000166582 -0.000166586 -0.000166581 -0.000166582 -0.000265707 -0.000265711 -0.000166582 -0.000166586 -0.000265711 -0.000265719 -0.000265714 -0.000265708 -0.000371881 -0.000371874 -0.000265708 -0.000265707 -0.000371874 -0.000371872 -0.000371881 -0.000371874 -0.000480718 -0.000480709 -0.000371874 -0.000371872 -0.000480709 -0.000480705 -0.000265707 -0.000265711 -0.000371872 -0.000371877 -0.000265711 -0.000265719 -0.000371877 -0.000371886 -0.000371872 -0.000371877 -0.000480705 -0.000480708 -0.000371877 -0.000371886 -0.000480708 -0.000480718 -0.000480748 -0.000480741 -0.000590422 -0.000590412 -0.000480741 -0.000480734 -0.000590412 -0.000590404 -0.000590422 -0.000590412 -0.000700313 -0.000700302 -0.000590412 -0.000590404 -0.000700302 -0.000700292 -0.000480734 -0.000480726 -0.000590404 -0.000590396 -0.000480726 -0.000480718 -0.000590396 -0.000590386 -0.000590404 -0.000590396 -0.000700292 -0.000700282 -0.000590396 -0.000590386 -0.000700282 -0.000700272 -0.000700313 -0.000700302 -0.000810254 -0.000810241 -0.000700302 -0.000700292 -0.000810241 -0.00081023 -0.000810254 -0.000810241 -0.00092021 -0.000920195 -0.000810241 -0.00081023 -0.000920195 -0.000920182 -0.000700292 -0.000700282 -0.00081023 -0.000810219 -0.000700282 -0.000700272 -0.000810219 -0.000810209 -0.00081023 -0.000810219 -0.000920182 -0.00092017 -0.000810219 -0.000810209 -0.00092017 -0.000920159 -0.000480718 -0.000480709 -0.000590386 -0.000590377 -0.000480709 -0.000480705 -0.000590377 -0.00059037 -0.000590386 -0.000590377 -0.000700272 -0.000700262 -0.000590377 -0.00059037 -0.000700262 -0.000700253 -0.000480705 -0.000480708 -0.00059037 -0.00059037 -0.000480708 -0.000480718 -0.00059037 -0.000590377 -0.00059037 -0.00059037 -0.000700253 -0.000700248 -0.00059037 -0.000590377 -0.000700248 -0.000700251 -0.000700272 -0.000700262 -0.000810209 -0.000810198 -0.000700262 -0.000700253 -0.000810198 -0.000810188 -0.000810209 -0.000810198 -0.000920159 -0.000920148 -0.000810198 -0.000810188 -0.000920148 -0.000920137 -0.000700253 -0.000700248 -0.000810188 -0.000810179 -0.000700248 -0.000700251 -0.000810179 -0.000810176 -0.000810188 -0.000810179 -0.000920137 -0.000920127 -0.000810179 -0.000810176 -0.000920127 -0.00092012 -8.23931e-05 -8.23893e-05 -0.000166586 -0.000166585 -8.23893e-05 -8.23827e-05 -0.000166585 -0.00016655 -0.000166586 -0.000166585 -0.000265719 -0.000265721 -0.000166585 -0.00016655 -0.000265721 -0.000265679 -8.23827e-05 -8.23731e-05 -0.00016655 -0.000166428 -8.23731e-05 -8.23663e-05 -0.000166428 -0.0001662 -0.00016655 -0.000166428 -0.000265679 -0.000265521 -0.000166428 -0.0001662 -0.000265521 -0.0002652 -0.000265719 -0.000265721 -0.000371886 -0.00037189 -0.000265721 -0.000265679 -0.00037189 -0.000371859 -0.000371886 -0.00037189 -0.000480718 -0.000480723 -0.00037189 -0.000371859 -0.000480723 -0.000480704 -0.000265679 -0.000265521 -0.000371859 -0.000371736 -0.000265521 -0.0002652 -0.000371736 -0.000371482 -0.000371859 -0.000371736 -0.000480704 -0.000480629 -0.000371736 -0.000371482 -0.000480629 -0.000480484 -8.23663e-05 -8.23723e-05 -0.0001662 -0.000166011 -8.23723e-05 -8.23935e-05 -0.000166011 -0.000166412 -0.0001662 -0.000166011 -0.0002652 -0.000264837 -0.000166011 -0.000166412 -0.000264837 -0.000264796 -8.23935e-05 -8.23976e-05 -0.000166412 -0.000168779 -8.23976e-05 -8.23737e-05 -0.000168779 -0.00017735 -0.000166412 -0.000168779 -0.000264796 -0.000265636 -0.000168779 -0.00017735 -0.000265636 -0.000265006 -0.0002652 -0.000264837 -0.000371482 -0.000371136 -0.000264837 -0.000264796 -0.000371136 -0.000370796 -0.000371482 -0.000371136 -0.000480484 -0.000480307 -0.000371136 -0.000370796 -0.000480307 -0.000480108 -0.000264796 -0.000265636 -0.000370796 -0.000370064 -0.000265636 -0.000265006 -0.000370064 -0.000368741 -0.000370796 -0.000370064 -0.000480108 -0.000479867 -0.000370064 -0.000368741 -0.000479867 -0.000479492 -0.000480718 -0.000480723 -0.000590377 -0.000590386 -0.000480723 -0.000480704 -0.000590386 -0.000590379 -0.000590377 -0.000590386 -0.000700251 -0.00070026 -0.000590386 -0.000590379 -0.00070026 -0.000700266 -0.000480704 -0.000480629 -0.000590379 -0.000590337 -0.000480629 -0.000480484 -0.000590337 -0.000590252 -0.000590379 -0.000590337 -0.000700266 -0.000700254 -0.000590337 -0.000590252 -0.000700254 -0.000700205 -0.000700251 -0.00070026 -0.000810176 -0.00081018 -0.00070026 -0.000700266 -0.00081018 -0.000810189 -0.000810176 -0.00081018 -0.00092012 -0.000920117 -0.00081018 -0.000810189 -0.000920117 -0.000920118 -0.000700266 -0.000700254 -0.000810189 -0.000810198 -0.000700254 -0.000700205 -0.000810198 -0.000810192 -0.000810189 -0.000810198 -0.000920118 -0.000920126 -0.000810198 -0.000810192 -0.000920126 -0.000920138 -0.000480484 -0.000480307 -0.000590252 -0.000590162 -0.000480307 -0.000480108 -0.000590162 -0.000590159 -0.000590252 -0.000590162 -0.000700205 -0.000700132 -0.000590162 -0.000590159 -0.000700132 -0.000700092 -0.000480108 -0.000479867 -0.000590159 -0.000590321 -0.000479867 -0.000479492 -0.000590321 -0.000590691 -0.000590159 -0.000590321 -0.000700092 -0.000700169 -0.000590321 -0.000590691 -0.000700169 -0.000700394 -0.000700205 -0.000700132 -0.000810192 -0.000810158 -0.000700132 -0.000700092 -0.000810158 -0.000810098 -0.000810192 -0.000810158 -0.000920138 -0.000920145 -0.000810158 -0.000810098 -0.000920145 -0.000920134 -0.000700092 -0.000700169 -0.000810098 -0.000810035 -0.000700169 -0.000700394 -0.000810035 -0.000809986 -0.000810098 -0.000810035 -0.000920134 -0.000920098 -0.000810035 -0.000809986 -0.000920098 -0.000920037 -0.00092021 -0.000920195 -0.00103017 -0.00103016 -0.000920195 -0.000920182 -0.00103016 -0.00103014 -0.00103017 -0.00103016 -0.00114014 -0.00114012 -0.00103016 -0.00103014 -0.00114012 -0.00114011 -0.000920182 -0.00092017 -0.00103014 -0.00103013 -0.00092017 -0.000920159 -0.00103013 -0.00103012 -0.00103014 -0.00103013 -0.00114011 -0.00114009 -0.00103013 -0.00103012 -0.00114009 -0.00114008 -0.00114014 -0.00114012 -0.00125012 -0.0012501 -0.00114012 -0.00114011 -0.0012501 -0.00125008 -0.00125012 -0.0012501 -0.0013601 -0.00136007 -0.0012501 -0.00125008 -0.00136007 -0.00136005 -0.00114011 -0.00114009 -0.00125008 -0.00125006 -0.00114009 -0.00114008 -0.00125006 -0.00125005 -0.00125008 -0.00125006 -0.00136005 -0.00136004 -0.00125006 -0.00125005 -0.00136004 -0.00136002 -0.000920159 -0.000920148 -0.00103012 -0.0010301 -0.000920148 -0.000920137 -0.0010301 -0.00103009 -0.00103012 -0.0010301 -0.00114008 -0.00114007 -0.0010301 -0.00103009 -0.00114007 -0.00114006 -0.000920137 -0.000920127 -0.00103009 -0.00103008 -0.000920127 -0.00092012 -0.00103008 -0.00103007 -0.00103009 -0.00103008 -0.00114006 -0.00114005 -0.00103008 -0.00103007 -0.00114005 -0.00114004 -0.00114008 -0.00114007 -0.00125005 -0.00125004 -0.00114007 -0.00114006 -0.00125004 -0.00125003 -0.00125005 -0.00125004 -0.00136002 -0.00136001 -0.00125004 -0.00125003 -0.00136001 -0.00136 -0.00114006 -0.00114005 -0.00125003 -0.00125002 -0.00114005 -0.00114004 -0.00125002 -0.00125001 -0.00125003 -0.00125002 -0.00136 -0.00136 -0.00125002 -0.00125001 -0.00136 -0.00135999 -0.0013601 -0.00136007 -0.00147008 -0.00147006 -0.00136007 -0.00136005 -0.00147006 -0.00147004 -0.00147008 -0.00147006 -0.00158007 -0.00158004 -0.00147006 -0.00147004 -0.00158004 -0.00158002 -0.00136005 -0.00136004 -0.00147004 -0.00147002 -0.00136004 -0.00136002 -0.00147002 -0.00147001 -0.00147004 -0.00147002 -0.00158002 -0.00158001 -0.00147002 -0.00147001 -0.00158001 -0.00158 -0.00158007 -0.00158004 -0.00169006 -0.00169003 -0.00158004 -0.00158002 -0.00169003 -0.00169001 -0.00169006 -0.00169003 -0.0018 -0.0018 -0.00169003 -0.00169001 -0.0018 -0.0018 -0.00158002 -0.00158001 -0.00169001 -0.00169 -0.00158001 -0.00158 -0.00169 -0.00169 -0.00169001 -0.00169 -0.0018 -0.0018 -0.00169 -0.00169 -0.0018 -0.0018 -0.00136002 -0.00136001 -0.00147001 -0.00147 -0.00136001 -0.00136 -0.00147 -0.00146999 -0.00147001 -0.00147 -0.00158 -0.00157999 -0.00147 -0.00146999 -0.00157999 -0.00157998 -0.00136 -0.00136 -0.00146999 -0.00146998 -0.00136 -0.00135999 -0.00146998 -0.00146998 -0.00146999 -0.00146998 -0.00157998 -0.00157998 -0.00146998 -0.00146998 -0.00157998 -0.00157998 -0.00158 -0.00157999 -0.00169 -0.00168999 -0.00157999 -0.00157998 -0.00168999 -0.00168999 -0.00169 -0.00168999 -0.0018 -0.0018 -0.00168999 -0.00168999 -0.0018 -0.0018 -0.00157998 -0.00157998 -0.00168999 -0.00168999 -0.00157998 -0.00157998 -0.00168999 -0.00168998 -0.00168999 -0.00168999 -0.0018 -0.0018 -0.00168999 -0.00168998 -0.0018 -0.0018 -0.00092012 -0.000920117 -0.00103007 -0.00103007 -0.000920117 -0.000920118 -0.00103007 -0.00103006 -0.00103007 -0.00103007 -0.00114004 -0.00114003 -0.00103007 -0.00103006 -0.00114003 -0.00114002 -0.000920118 -0.000920126 -0.00103006 -0.00103006 -0.000920126 -0.000920138 -0.00103006 -0.00103006 -0.00103006 -0.00103006 -0.00114002 -0.00114002 -0.00103006 -0.00103006 -0.00114002 -0.00114001 -0.00114004 -0.00114003 -0.00125001 -0.00125 -0.00114003 -0.00114002 -0.00125 -0.00124999 -0.00125001 -0.00125 -0.00135999 -0.00135998 -0.00125 -0.00124999 -0.00135998 -0.00135998 -0.00114002 -0.00114002 -0.00124999 -0.00124999 -0.00114002 -0.00114001 -0.00124999 -0.00124998 -0.00124999 -0.00124999 -0.00135998 -0.00135997 -0.00124999 -0.00124998 -0.00135997 -0.00135997 -0.000920138 -0.000920145 -0.00103006 -0.00103007 -0.000920145 -0.000920134 -0.00103007 -0.00103008 -0.00103006 -0.00103007 -0.00114001 -0.00114001 -0.00103007 -0.00103008 -0.00114001 -0.00114 -0.000920134 -0.000920098 -0.00103008 -0.00103008 -0.000920098 -0.000920037 -0.00103008 -0.00103007 -0.00103008 -0.00103008 -0.00114 -0.00114 -0.00103008 -0.00103007 -0.00114 -0.00113999 -0.00114001 -0.00114001 -0.00124998 -0.00124998 -0.00114001 -0.00114 -0.00124998 -0.00124997 -0.00124998 -0.00124998 -0.00135997 -0.00135996 -0.00124998 -0.00124997 -0.00135996 -0.00135996 -0.00114 -0.00114 -0.00124997 -0.00124996 -0.00114 -0.00113999 -0.00124996 -0.00124996 -0.00124997 -0.00124996 -0.00135996 -0.00135996 -0.00124996 -0.00124996 -0.00135996 -0.00135995 -0.00135999 -0.00135998 -0.00146998 -0.00146997 -0.00135998 -0.00135998 -0.00146997 -0.00146997 -0.00146998 -0.00146997 -0.00157998 -0.00157997 -0.00146997 -0.00146997 -0.00157997 -0.00157997 -0.00135998 -0.00135997 -0.00146997 -0.00146996 -0.00135997 -0.00135997 -0.00146996 -0.00146996 -0.00146997 -0.00146996 -0.00157997 -0.00157997 -0.00146996 -0.00146996 -0.00157997 -0.00157996 -0.00157998 -0.00157997 -0.00168998 -0.00168998 -0.00157997 -0.00157997 -0.00168998 -0.00168998 -0.00168998 -0.00168998 -0.0018 -0.0018 -0.00168998 -0.00168998 -0.0018 -0.0018 -0.00157997 -0.00157997 -0.00168998 -0.00168998 -0.00157997 -0.00157996 -0.00168998 -0.00168998 -0.00168998 -0.00168998 -0.0018 -0.0018 -0.00168998 -0.00168998 -0.0018 -0.0018 -0.00135997 -0.00135996 -0.00146996 -0.00146996 -0.00135996 -0.00135996 -0.00146996 -0.00146995 -0.00146996 -0.00146996 -0.00157996 -0.00157996 -0.00146996 -0.00146995 -0.00157996 -0.00157996 -0.00135996 -0.00135996 -0.00146995 -0.00146995 -0.00135996 -0.00135995 -0.00146995 -0.00146995 -0.00146995 -0.00146995 -0.00157996 -0.00157996 -0.00146995 -0.00146995 -0.00157996 -0.00157996 -0.00157996 -0.00157996 -0.00168998 -0.00168998 -0.00157996 -0.00157996 -0.00168998 -0.00168998 -0.00168998 -0.00168998 -0.0018 -0.0018 -0.00168998 -0.00168998 -0.0018 -0.0018 -0.00157996 -0.00157996 -0.00168998 -0.00168998 -0.00157996 -0.00157996 -0.00168998 -0.00168998 -0.00168998 -0.00168998 -0.0018 -0.0018 -0.00168998 -0.00168998 -0.0018 -0.0018 -8.23737e-05 -0.000137962 -0.00017735 -0.00017997 -0.000137962 -0.000159392 -0.00017997 -0.000187289 -0.00017735 -0.00017997 -0.000265006 -0.000263888 -0.00017997 -0.000187289 -0.000263888 -0.000262334 -0.000159392 -0.000165995 -0.000187289 -0.000191463 -0.000165995 -0.000167163 -0.000191463 -0.00019232 -0.000187289 -0.000191463 -0.000262334 -0.000262317 -0.000191463 -0.00019232 -0.000262317 -0.000262062 -0.000265006 -0.000263888 -0.000368741 -0.000366757 -0.000263888 -0.000262334 -0.000366757 -0.000365232 -0.000368741 -0.000366757 -0.000479492 -0.000479152 -0.000366757 -0.000365232 -0.000479152 -0.000479014 -0.000262334 -0.000262317 -0.000365232 -0.000364402 -0.000262317 -0.000262062 -0.000364402 -0.000364057 -0.000365232 -0.000364402 -0.000479014 -0.000479125 -0.000364402 -0.000364057 -0.000479125 -0.000479211 -0.000167163 -0.000166653 -0.00019232 -0.000191462 -0.000166653 -0.000165757 -0.000191462 -0.000190293 -0.00019232 -0.000191462 -0.000262062 -0.000261283 -0.000191462 -0.000190293 -0.000261283 -0.000260453 -0.000165757 -0.000164931 -0.000190293 -0.000189535 -0.000164931 -0.000164473 -0.000189535 -0.000189283 -0.000190293 -0.000189535 -0.000260453 -0.000259967 -0.000189535 -0.000189283 -0.000259967 -0.000259841 -0.000262062 -0.000261283 -0.000364057 -0.00036367 -0.000261283 -0.000260453 -0.00036367 -0.000363259 -0.000364057 -0.00036367 -0.000479211 -0.000479118 -0.00036367 -0.000363259 -0.000479118 -0.000478907 -0.000260453 -0.000259967 -0.000363259 -0.000362996 -0.000259967 -0.000259841 -0.000362996 -0.000362915 -0.000363259 -0.000362996 -0.000478907 -0.000478742 -0.000362996 -0.000362915 -0.000478742 -0.000478684 -0.000479492 -0.000479152 -0.000590691 -0.000591221 -0.000479152 -0.000479014 -0.000591221 -0.000591797 -0.000590691 -0.000591221 -0.000700394 -0.000700708 -0.000591221 -0.000591797 -0.000700708 -0.000700974 -0.000479014 -0.000479125 -0.000591797 -0.000592221 -0.000479125 -0.000479211 -0.000592221 -0.000592364 -0.000591797 -0.000592221 -0.000700974 -0.000701073 -0.000592221 -0.000592364 -0.000701073 -0.000700996 -0.000700394 -0.000700708 -0.000809986 -0.000809938 -0.000700708 -0.000700974 -0.000809938 -0.00080986 -0.000809986 -0.000809938 -0.000920037 -0.000919962 -0.000809938 -0.00080986 -0.000919962 -0.000919887 -0.000700974 -0.000701073 -0.00080986 -0.000809746 -0.000701073 -0.000700996 -0.000809746 -0.000809632 -0.00080986 -0.000809746 -0.000919887 -0.000919833 -0.000809746 -0.000809632 -0.000919833 -0.000919817 -0.000479211 -0.000479118 -0.000592364 -0.000592265 -0.000479118 -0.000478907 -0.000592265 -0.000592096 -0.000592364 -0.000592265 -0.000700996 -0.000700851 -0.000592265 -0.000592096 -0.000700851 -0.000700752 -0.000478907 -0.000478742 -0.000592096 -0.000591995 -0.000478742 -0.000478684 -0.000591995 -0.000591985 -0.000592096 -0.000591995 -0.000700752 -0.000700735 -0.000591995 -0.000591985 -0.000700735 -0.000700766 -0.000700996 -0.000700851 -0.000809632 -0.00080957 -0.000700851 -0.000700752 -0.00080957 -0.000809569 -0.000809632 -0.00080957 -0.000919817 -0.000919834 -0.00080957 -0.000809569 -0.000919834 -0.000919862 -0.000700752 -0.000700735 -0.000809569 -0.000809599 -0.000700735 -0.000700766 -0.000809599 -0.000809629 -0.000809569 -0.000809599 -0.000919862 -0.000919882 -0.000809599 -0.000809629 -0.000919882 -0.000919888 -0.000164473 -0.000164421 -0.000189283 -0.000189324 -0.000164421 -0.000164548 -0.000189324 -0.000189437 -0.000189283 -0.000189324 -0.000259841 -0.000259887 -0.000189324 -0.000189437 -0.000259887 -0.000259957 -0.000164548 -0.000164646 -0.000189437 -0.000189505 -0.000164646 -0.000164665 -0.000189505 -0.000189512 -0.000189437 -0.000189505 -0.000259957 -0.000259996 -0.000189505 -0.000189512 -0.000259996 -0.000260001 -0.000259841 -0.000259887 -0.000362915 -0.000362933 -0.000259887 -0.000259957 -0.000362933 -0.000362978 -0.000362915 -0.000362933 -0.000478684 -0.000478704 -0.000362933 -0.000362978 -0.000478704 -0.000478747 -0.000259957 -0.000259996 -0.000362978 -0.000363011 -0.000259996 -0.000260001 -0.000363011 -0.000363019 -0.000362978 -0.000363011 -0.000478747 -0.000478775 -0.000363011 -0.000363019 -0.000478775 -0.000478778 -0.000164665 -0.000164645 -0.000189512 -0.000189491 -0.000164645 -0.000164623 -0.000189491 -0.000189474 -0.000189512 -0.000189491 -0.000260001 -0.00025999 -0.000189491 -0.000189474 -0.00025999 -0.000259977 -0.000164623 -0.000164613 -0.000189474 -0.000189468 -0.000164613 -0.000164611 -0.000189468 -0.000189466 -0.000189474 -0.000189468 -0.000259977 -0.000259969 -0.000189468 -0.000189466 -0.000259969 -0.000259964 -0.000260001 -0.00025999 -0.000363019 -0.00036301 -0.00025999 -0.000259977 -0.00036301 -0.000362996 -0.000363019 -0.00036301 -0.000478778 -0.000478764 -0.00036301 -0.000362996 -0.000478764 -0.000478751 -0.000259977 -0.000259969 -0.000362996 -0.000362986 -0.000259969 -0.000259964 -0.000362986 -0.000362979 -0.000362996 -0.000362986 -0.000478751 -0.000478741 -0.000362986 -0.000362979 -0.000478741 -0.000478732 -0.000478684 -0.000478704 -0.000591985 -0.000592022 -0.000478704 -0.000478747 -0.000592022 -0.000592059 -0.000591985 -0.000592022 -0.000700766 -0.000700801 -0.000592022 -0.000592059 -0.000700801 -0.000700819 -0.000478747 -0.000478775 -0.000592059 -0.000592073 -0.000478775 -0.000478778 -0.000592073 -0.000592065 -0.000592059 -0.000592073 -0.000700819 -0.000700817 -0.000592073 -0.000592065 -0.000700817 -0.000700805 -0.000700766 -0.000700801 -0.000809629 -0.000809643 -0.000700801 -0.000700819 -0.000809643 -0.000809643 -0.000809629 -0.000809643 -0.000919888 -0.000919886 -0.000809643 -0.000809643 -0.000919886 -0.000919879 -0.000700819 -0.000700817 -0.000809643 -0.000809634 -0.000700817 -0.000700805 -0.000809634 -0.000809621 -0.000809643 -0.000809634 -0.000919879 -0.000919868 -0.000809634 -0.000809621 -0.000919868 -0.000919856 -0.000478778 -0.000478764 -0.000592065 -0.00059205 -0.000478764 -0.000478751 -0.00059205 -0.000592038 -0.000592065 -0.00059205 -0.000700805 -0.000700791 -0.00059205 -0.000592038 -0.000700791 -0.00070078 -0.000478751 -0.000478741 -0.000592038 -0.000592029 -0.000478741 -0.000478732 -0.000592029 -0.00059202 -0.000592038 -0.000592029 -0.00070078 -0.00070077 -0.000592029 -0.00059202 -0.00070077 -0.00070076 -0.000700805 -0.000700791 -0.000809621 -0.000809609 -0.000700791 -0.00070078 -0.000809609 -0.000809598 -0.000809621 -0.000809609 -0.000919856 -0.000919844 -0.000809609 -0.000809598 -0.000919844 -0.000919832 -0.00070078 -0.00070077 -0.000809598 -0.000809587 -0.00070077 -0.00070076 -0.000809587 -0.000809575 -0.000809598 -0.000809587 -0.000919832 -0.00091982 -0.000809587 -0.000809575 -0.00091982 -0.000919805 -0.000920037 -0.000919962 -0.00103007 -0.00103007 -0.000919962 -0.000919887 -0.00103007 -0.00103006 -0.00103007 -0.00103007 -0.00113999 -0.00113999 -0.00103007 -0.00103006 -0.00113999 -0.00113999 -0.000919887 -0.000919833 -0.00103006 -0.00103007 -0.000919833 -0.000919817 -0.00103007 -0.00103008 -0.00103006 -0.00103007 -0.00113999 -0.00113999 -0.00103007 -0.00103008 -0.00113999 -0.00113998 -0.00113999 -0.00113999 -0.00124996 -0.00124995 -0.00113999 -0.00113999 -0.00124995 -0.00124994 -0.00124996 -0.00124995 -0.00135995 -0.00135995 -0.00124995 -0.00124994 -0.00135995 -0.00135995 -0.00113999 -0.00113999 -0.00124994 -0.00124993 -0.00113999 -0.00113998 -0.00124993 -0.00124993 -0.00124994 -0.00124993 -0.00135995 -0.00135995 -0.00124993 -0.00124993 -0.00135995 -0.00135995 -0.000919817 -0.000919834 -0.001