# vtk DataFile Version 3.0
#This file was generated by the deal.II library on 2022/11/16 at 21:24:40
ASCII
DATASET UNSTRUCTURED_GRID

POINTS 4096 double
0 0.5 0
0.03125 0.5 0
0 0.53125 0
0.03125 0.53125 0
0.03125 0.5 0
0.0625 0.5 0
0.03125 0.53125 0
0.0625 0.53125 0
0 0.53125 0
0.03125 0.53125 0
0 0.5625 0
0.03125 0.5625 0
0.03125 0.53125 0
0.0625 0.53125 0
0.03125 0.5625 0
0.0625 0.5625 0
0.0625 0.5 0
0.09375 0.5 0
0.0625 0.53125 0
0.09375 0.53125 0
0.09375 0.5 0
0.125 0.5 0
0.09375 0.53125 0
0.125 0.53125 0
0.0625 0.53125 0
0.09375 0.53125 0
0.0625 0.5625 0
0.09375 0.5625 0
0.09375 0.53125 0
0.125 0.53125 0
0.09375 0.5625 0
0.125 0.5625 0
0 0.5625 0
0.03125 0.5625 0
0 0.59375 0
0.03125 0.59375 0
0.03125 0.5625 0
0.0625 0.5625 0
0.03125 0.59375 0
0.0625 0.59375 0
0 0.59375 0
0.03125 0.59375 0
0 0.625 0
0.03125 0.625 0
0.03125 0.59375 0
0.0625 0.59375 0
0.03125 0.625 0
0.0625 0.625 0
0.0625 0.5625 0
0.09375 0.5625 0
0.0625 0.59375 0
0.09375 0.59375 0
0.09375 0.5625 0
0.125 0.5625 0
0.09375 0.59375 0
0.125 0.59375 0
0.0625 0.59375 0
0.09375 0.59375 0
0.0625 0.625 0
0.09375 0.625 0
0.09375 0.59375 0
0.125 0.59375 0
0.09375 0.625 0
0.125 0.625 0
0.125 0.5 0
0.15625 0.5 0
0.125 0.53125 0
0.15625 0.53125 0
0.15625 0.5 0
0.1875 0.5 0
0.15625 0.53125 0
0.1875 0.53125 0
0.125 0.53125 0
0.15625 0.53125 0
0.125 0.5625 0
0.15625 0.5625 0
0.15625 0.53125 0
0.1875 0.53125 0
0.15625 0.5625 0
0.1875 0.5625 0
0.1875 0.5 0
0.21875 0.5 0
0.1875 0.53125 0
0.21875 0.53125 0
0.21875 0.5 0
0.25 0.5 0
0.21875 0.53125 0
0.25 0.53125 0
0.1875 0.53125 0
0.21875 0.53125 0
0.1875 0.5625 0
0.21875 0.5625 0
0.21875 0.53125 0
0.25 0.53125 0
0.21875 0.5625 0
0.25 0.5625 0
0.125 0.5625 0
0.15625 0.5625 0
0.125 0.59375 0
0.15625 0.59375 0
0.15625 0.5625 0
0.1875 0.5625 0
0.15625 0.59375 0
0.1875 0.59375 0
0.125 0.59375 0
0.15625 0.59375 0
0.125 0.625 0
0.15625 0.625 0
0.15625 0.59375 0
0.1875 0.59375 0
0.15625 0.625 0
0.1875 0.625 0
0.1875 0.5625 0
0.21875 0.5625 0
0.1875 0.59375 0
0.21875 0.59375 0
0.21875 0.5625 0
0.25 0.5625 0
0.21875 0.59375 0
0.25 0.59375 0
0.1875 0.59375 0
0.21875 0.59375 0
0.1875 0.625 0
0.21875 0.625 0
0.21875 0.59375 0
0.25 0.59375 0
0.21875 0.625 0
0.25 0.625 0
0 0.625 0
0.03125 0.625 0
0 0.65625 0
0.03125 0.65625 0
0.03125 0.625 0
0.0625 0.625 0
0.03125 0.65625 0
0.0625 0.65625 0
0 0.65625 0
0.03125 0.65625 0
0 0.6875 0
0.03125 0.6875 0
0.03125 0.65625 0
0.0625 0.65625 0
0.03125 0.6875 0
0.0625 0.6875 0
0.0625 0.625 0
0.09375 0.625 0
0.0625 0.65625 0
0.09375 0.65625 0
0.09375 0.625 0
0.125 0.625 0
0.09375 0.65625 0
0.125 0.65625 0
0.0625 0.65625 0
0.09375 0.65625 0
0.0625 0.6875 0
0.09375 0.6875 0
0.09375 0.65625 0
0.125 0.65625 0
0.09375 0.6875 0
0.125 0.6875 0
0 0.6875 0
0.03125 0.6875 0
0 0.71875 0
0.03125 0.71875 0
0.03125 0.6875 0
0.0625 0.6875 0
0.03125 0.71875 0
0.0625 0.71875 0
0 0.71875 0
0.03125 0.71875 0
0 0.75 0
0.03125 0.75 0
0.03125 0.71875 0
0.0625 0.71875 0
0.03125 0.75 0
0.0625 0.75 0
0.0625 0.6875 0
0.09375 0.6875 0
0.0625 0.71875 0
0.09375 0.71875 0
0.09375 0.6875 0
0.125 0.6875 0
0.09375 0.71875 0
0.125 0.71875 0
0.0625 0.71875 0
0.09375 0.71875 0
0.0625 0.75 0
0.09375 0.75 0
0.09375 0.71875 0
0.125 0.71875 0
0.09375 0.75 0
0.125 0.75 0
0.125 0.625 0
0.15625 0.625 0
0.125 0.65625 0
0.15625 0.65625 0
0.15625 0.625 0
0.1875 0.625 0
0.15625 0.65625 0
0.1875 0.65625 0
0.125 0.65625 0
0.15625 0.65625 0
0.125 0.6875 0
0.15625 0.6875 0
0.15625 0.65625 0
0.1875 0.65625 0
0.15625 0.6875 0
0.1875 0.6875 0
0.1875 0.625 0
0.21875 0.625 0
0.1875 0.65625 0
0.21875 0.65625 0
0.21875 0.625 0
0.25 0.625 0
0.21875 0.65625 0
0.25 0.65625 0
0.1875 0.65625 0
0.21875 0.65625 0
0.1875 0.6875 0
0.21875 0.6875 0
0.21875 0.65625 0
0.25 0.65625 0
0.21875 0.6875 0
0.25 0.6875 0
0.125 0.6875 0
0.15625 0.6875 0
0.125 0.71875 0
0.15625 0.71875 0
0.15625 0.6875 0
0.1875 0.6875 0
0.15625 0.71875 0
0.1875 0.71875 0
0.125 0.71875 0
0.15625 0.71875 0
0.125 0.75 0
0.15625 0.75 0
0.15625 0.71875 0
0.1875 0.71875 0
0.15625 0.75 0
0.1875 0.75 0
0.1875 0.6875 0
0.21875 0.6875 0
0.1875 0.71875 0
0.21875 0.71875 0
0.21875 0.6875 0
0.25 0.6875 0
0.21875 0.71875 0
0.25 0.71875 0
0.1875 0.71875 0
0.21875 0.71875 0
0.1875 0.75 0
0.21875 0.75 0
0.21875 0.71875 0
0.25 0.71875 0
0.21875 0.75 0
0.25 0.75 0
0.25 0.5 0
0.28125 0.5 0
0.25 0.53125 0
0.28125 0.53125 0
0.28125 0.5 0
0.3125 0.5 0
0.28125 0.53125 0
0.3125 0.53125 0
0.25 0.53125 0
0.28125 0.53125 0
0.25 0.5625 0
0.28125 0.5625 0
0.28125 0.53125 0
0.3125 0.53125 0
0.28125 0.5625 0
0.3125 0.5625 0
0.3125 0.5 0
0.34375 0.5 0
0.3125 0.53125 0
0.34375 0.53125 0
0.34375 0.5 0
0.375 0.5 0
0.34375 0.53125 0
0.375 0.53125 0
0.3125 0.53125 0
0.34375 0.53125 0
0.3125 0.5625 0
0.34375 0.5625 0
0.34375 0.53125 0
0.375 0.53125 0
0.34375 0.5625 0
0.375 0.5625 0
0.25 0.5625 0
0.28125 0.5625 0
0.25 0.59375 0
0.28125 0.59375 0
0.28125 0.5625 0
0.3125 0.5625 0
0.28125 0.59375 0
0.3125 0.59375 0
0.25 0.59375 0
0.28125 0.59375 0
0.25 0.625 0
0.28125 0.625 0
0.28125 0.59375 0
0.3125 0.59375 0
0.28125 0.625 0
0.3125 0.625 0
0.3125 0.5625 0
0.34375 0.5625 0
0.3125 0.59375 0
0.34375 0.59375 0
0.34375 0.5625 0
0.375 0.5625 0
0.34375 0.59375 0
0.375 0.59375 0
0.3125 0.59375 0
0.34375 0.59375 0
0.3125 0.625 0
0.34375 0.625 0
0.34375 0.59375 0
0.375 0.59375 0
0.34375 0.625 0
0.375 0.625 0
0.375 0.5 0
0.40625 0.5 0
0.375 0.53125 0
0.40625 0.53125 0
0.40625 0.5 0
0.4375 0.5 0
0.40625 0.53125 0
0.4375 0.53125 0
0.375 0.53125 0
0.40625 0.53125 0
0.375 0.5625 0
0.40625 0.5625 0
0.40625 0.53125 0
0.4375 0.53125 0
0.40625 0.5625 0
0.4375 0.5625 0
0.4375 0.5 0
0.46875 0.5 0
0.4375 0.53125 0
0.46875 0.53125 0
0.46875 0.5 0
0.5 0.5 0
0.46875 0.53125 0
0.5 0.53125 0
0.4375 0.53125 0
0.46875 0.53125 0
0.4375 0.5625 0
0.46875 0.5625 0
0.46875 0.53125 0
0.5 0.53125 0
0.46875 0.5625 0
0.5 0.5625 0
0.375 0.5625 0
0.40625 0.5625 0
0.375 0.59375 0
0.40625 0.59375 0
0.40625 0.5625 0
0.4375 0.5625 0
0.40625 0.59375 0
0.4375 0.59375 0
0.375 0.59375 0
0.40625 0.59375 0
0.375 0.625 0
0.40625 0.625 0
0.40625 0.59375 0
0.4375 0.59375 0
0.40625 0.625 0
0.4375 0.625 0
0.4375 0.5625 0
0.46875 0.5625 0
0.4375 0.59375 0
0.46875 0.59375 0
0.46875 0.5625 0
0.5 0.5625 0
0.46875 0.59375 0
0.5 0.59375 0
0.4375 0.59375 0
0.46875 0.59375 0
0.4375 0.625 0
0.46875 0.625 0
0.46875 0.59375 0
0.5 0.59375 0
0.46875 0.625 0
0.5 0.625 0
0.25 0.625 0
0.28125 0.625 0
0.25 0.65625 0
0.28125 0.65625 0
0.28125 0.625 0
0.3125 0.625 0
0.28125 0.65625 0
0.3125 0.65625 0
0.25 0.65625 0
0.28125 0.65625 0
0.25 0.6875 0
0.28125 0.6875 0
0.28125 0.65625 0
0.3125 0.65625 0
0.28125 0.6875 0
0.3125 0.6875 0
0.3125 0.625 0
0.34375 0.625 0
0.3125 0.65625 0
0.34375 0.65625 0
0.34375 0.625 0
0.375 0.625 0
0.34375 0.65625 0
0.375 0.65625 0
0.3125 0.65625 0
0.34375 0.65625 0
0.3125 0.6875 0
0.34375 0.6875 0
0.34375 0.65625 0
0.375 0.65625 0
0.34375 0.6875 0
0.375 0.6875 0
0.25 0.6875 0
0.28125 0.6875 0
0.25 0.71875 0
0.28125 0.71875 0
0.28125 0.6875 0
0.3125 0.6875 0
0.28125 0.71875 0
0.3125 0.71875 0
0.25 0.71875 0
0.28125 0.71875 0
0.25 0.75 0
0.28125 0.75 0
0.28125 0.71875 0
0.3125 0.71875 0
0.28125 0.75 0
0.3125 0.75 0
0.3125 0.6875 0
0.34375 0.6875 0
0.3125 0.71875 0
0.34375 0.71875 0
0.34375 0.6875 0
0.375 0.6875 0
0.34375 0.71875 0
0.375 0.71875 0
0.3125 0.71875 0
0.34375 0.71875 0
0.3125 0.75 0
0.34375 0.75 0
0.34375 0.71875 0
0.375 0.71875 0
0.34375 0.75 0
0.375 0.75 0
0.375 0.625 0
0.40625 0.625 0
0.375 0.65625 0
0.40625 0.65625 0
0.40625 0.625 0
0.4375 0.625 0
0.40625 0.65625 0
0.4375 0.65625 0
0.375 0.65625 0
0.40625 0.65625 0
0.375 0.6875 0
0.40625 0.6875 0
0.40625 0.65625 0
0.4375 0.65625 0
0.40625 0.6875 0
0.4375 0.6875 0
0.4375 0.625 0
0.46875 0.625 0
0.4375 0.65625 0
0.46875 0.65625 0
0.46875 0.625 0
0.5 0.625 0
0.46875 0.65625 0
0.5 0.65625 0
0.4375 0.65625 0
0.46875 0.65625 0
0.4375 0.6875 0
0.46875 0.6875 0
0.46875 0.65625 0
0.5 0.65625 0
0.46875 0.6875 0
0.5 0.6875 0
0.375 0.6875 0
0.40625 0.6875 0
0.375 0.71875 0
0.40625 0.71875 0
0.40625 0.6875 0
0.4375 0.6875 0
0.40625 0.71875 0
0.4375 0.71875 0
0.375 0.71875 0
0.40625 0.71875 0
0.375 0.75 0
0.40625 0.75 0
0.40625 0.71875 0
0.4375 0.71875 0
0.40625 0.75 0
0.4375 0.75 0
0.4375 0.6875 0
0.46875 0.6875 0
0.4375 0.71875 0
0.46875 0.71875 0
0.46875 0.6875 0
0.5 0.6875 0
0.46875 0.71875 0
0.5 0.71875 0
0.4375 0.71875 0
0.46875 0.71875 0
0.4375 0.75 0
0.46875 0.75 0
0.46875 0.71875 0
0.5 0.71875 0
0.46875 0.75 0
0.5 0.75 0
0 0.75 0
0.03125 0.75 0
0 0.78125 0
0.03125 0.78125 0
0.03125 0.75 0
0.0625 0.75 0
0.03125 0.78125 0
0.0625 0.78125 0
0 0.78125 0
0.03125 0.78125 0
0 0.8125 0
0.03125 0.8125 0
0.03125 0.78125 0
0.0625 0.78125 0
0.03125 0.8125 0
0.0625 0.8125 0
0.0625 0.75 0
0.09375 0.75 0
0.0625 0.78125 0
0.09375 0.78125 0
0.09375 0.75 0
0.125 0.75 0
0.09375 0.78125 0
0.125 0.78125 0
0.0625 0.78125 0
0.09375 0.78125 0
0.0625 0.8125 0
0.09375 0.8125 0
0.09375 0.78125 0
0.125 0.78125 0
0.09375 0.8125 0
0.125 0.8125 0
0 0.8125 0
0.03125 0.8125 0
0 0.84375 0
0.03125 0.84375 0
0.03125 0.8125 0
0.0625 0.8125 0
0.03125 0.84375 0
0.0625 0.84375 0
0 0.84375 0
0.03125 0.84375 0
0 0.875 0
0.03125 0.875 0
0.03125 0.84375 0
0.0625 0.84375 0
0.03125 0.875 0
0.0625 0.875 0
0.0625 0.8125 0
0.09375 0.8125 0
0.0625 0.84375 0
0.09375 0.84375 0
0.09375 0.8125 0
0.125 0.8125 0
0.09375 0.84375 0
0.125 0.84375 0
0.0625 0.84375 0
0.09375 0.84375 0
0.0625 0.875 0
0.09375 0.875 0
0.09375 0.84375 0
0.125 0.84375 0
0.09375 0.875 0
0.125 0.875 0
0.125 0.75 0
0.15625 0.75 0
0.125 0.78125 0
0.15625 0.78125 0
0.15625 0.75 0
0.1875 0.75 0
0.15625 0.78125 0
0.1875 0.78125 0
0.125 0.78125 0
0.15625 0.78125 0
0.125 0.8125 0
0.15625 0.8125 0
0.15625 0.78125 0
0.1875 0.78125 0
0.15625 0.8125 0
0.1875 0.8125 0
0.1875 0.75 0
0.21875 0.75 0
0.1875 0.78125 0
0.21875 0.78125 0
0.21875 0.75 0
0.25 0.75 0
0.21875 0.78125 0
0.25 0.78125 0
0.1875 0.78125 0
0.21875 0.78125 0
0.1875 0.8125 0
0.21875 0.8125 0
0.21875 0.78125 0
0.25 0.78125 0
0.21875 0.8125 0
0.25 0.8125 0
0.125 0.8125 0
0.15625 0.8125 0
0.125 0.84375 0
0.15625 0.84375 0
0.15625 0.8125 0
[...]
POINT_DATA 4096
SCALARS x_dis double 1
LOOKUP_TABLE default
2.4819e-08 2.48327e-08 4.30899e-07 4.30928e-07 2.48327e-08 2.48717e-08 4.30928e-07 4.3101e-07 4.30899e-07 4.30928e-07 -7.3064e-07 -7.30587e-07 4.30928e-07 4.3101e-07 -7.30587e-07 -7.30435e-07 2.48717e-08 2.49301e-08 4.3101e-07 4.31134e-07 2.49301e-08 2.49994e-08 4.31134e-07 4.31284e-07 4.3101e-07 4.31134e-07 -7.30435e-07 -7.30204e-07 4.31134e-07 4.31284e-07 -7.30204e-07 -7.29924e-07 -7.3064e-07 -7.30587e-07 -1.72471e-06 -1.72461e-06 -7.30587e-07 -7.30435e-07 -1.72461e-06 -1.72434e-06 -1.72471e-06 -1.72461e-06 4.3605e-06 4.36066e-06 -1.72461e-06 -1.72434e-06 4.36066e-06 4.36112e-06 -7.30435e-07 -7.30204e-07 -1.72434e-06 -1.72394e-06 -7.30204e-07 -7.29924e-07 -1.72394e-06 -1.72346e-06 -1.72434e-06 -1.72394e-06 4.36112e-06 4.36179e-06 -1.72394e-06 -1.72346e-06 4.36179e-06 4.36259e-06 2.49994e-08 2.50705e-08 4.31284e-07 4.31442e-07 2.50705e-08 2.51355e-08 4.31442e-07 4.3159e-07 4.31284e-07 4.31442e-07 -7.29924e-07 -7.29625e-07 4.31442e-07 4.3159e-07 -7.29625e-07 -7.29338e-07 2.51355e-08 2.51889e-08 4.3159e-07 4.31718e-07 2.51889e-08 2.52289e-08 4.31718e-07 4.31821e-07 4.3159e-07 4.31718e-07 -7.29338e-07 -7.29084e-07 4.31718e-07 4.31821e-07 -7.29084e-07 -7.28874e-07 -7.29924e-07 -7.29625e-07 -1.72346e-06 -1.72295e-06 -7.29625e-07 -7.29338e-07 -1.72295e-06 -1.72246e-06 -1.72346e-06 -1.72295e-06 4.36259e-06 4.36342e-06 -1.72295e-06 -1.72246e-06 4.36342e-06 4.36421e-06 -7.29338e-07 -7.29084e-07 -1.72246e-06 -1.72201e-06 -7.29084e-07 -7.28874e-07 -1.72201e-06 -1.72164e-06 -1.72246e-06 -1.72201e-06 4.36421e-06 4.36491e-06 -1.72201e-06 -1.72164e-06 4.36491e-06 4.36551e-06 4.3605e-06 4.36066e-06 9.82344e-06 9.82371e-06 4.36066e-06 4.36112e-06 9.82371e-06 9.82446e-06 9.82344e-06 9.82371e-06 -1.06922e-05 -1.06918e-05 9.82371e-06 9.82446e-06 -1.06918e-05 -1.06906e-05 4.36112e-06 4.36179e-06 9.82446e-06 9.82554e-06 4.36179e-06 4.36259e-06 9.82554e-06 9.82679e-06 9.82446e-06 9.82554e-06 -1.06906e-05 -1.0689e-05 9.82554e-06 9.82679e-06 -1.0689e-05 -1.06871e-05 -1.06922e-05 -1.06918e-05 -6.9956e-05 -6.9955e-05 -1.06918e-05 -1.06906e-05 -6.9955e-05 -6.99531e-05 -6.9956e-05 -6.9955e-05 -0.000158692 -0.00015869 -6.9955e-05 -6.99531e-05 -0.00015869 -0.000158687 -1.06906e-05 -1.0689e-05 -6.99531e-05 -6.99507e-05 -1.0689e-05 -1.06871e-05 -6.99507e-05 -6.99481e-05 -6.99531e-05 -6.99507e-05 -0.000158687 -0.000158684 -6.99507e-05 -6.99481e-05 -0.000158684 -0.00015868 4.36259e-06 4.36342e-06 9.82679e-06 9.82807e-06 4.36342e-06 4.36421e-06 9.82807e-06 9.82927e-06 9.82679e-06 9.82807e-06 -1.06871e-05 -1.06852e-05 9.82807e-06 9.82927e-06 -1.06852e-05 -1.06835e-05 4.36421e-06 4.36491e-06 9.82927e-06 9.83033e-06 4.36491e-06 4.36551e-06 9.83033e-06 9.83122e-06 9.82927e-06 9.83033e-06 -1.06835e-05 -1.0682e-05 9.83033e-06 9.83122e-06 -1.0682e-05 -1.06807e-05 -1.06871e-05 -1.06852e-05 -6.99481e-05 -6.99455e-05 -1.06852e-05 -1.06835e-05 -6.99455e-05 -6.99431e-05 -6.99481e-05 -6.99455e-05 -0.00015868 -0.000158677 -6.99455e-05 -6.99431e-05 -0.000158677 -0.000158673 -1.06835e-05 -1.0682e-05 -6.99431e-05 -6.9941e-05 -1.0682e-05 -1.06807e-05 -6.9941e-05 -6.99393e-05 -6.99431e-05 -6.9941e-05 -0.000158673 -0.000158671 -6.9941e-05 -6.99393e-05 -0.000158671 -0.000158668 2.52289e-08 2.52565e-08 4.31821e-07 4.31897e-07 2.52565e-08 2.5272e-08 4.31897e-07 4.31925e-07 4.31821e-07 4.31897e-07 -7.28874e-07 -7.28717e-07 4.31897e-07 4.31925e-07 -7.28717e-07 -7.28633e-07 2.5272e-08 2.52751e-08 4.31925e-07 4.31879e-07 2.52751e-08 2.52786e-08 4.31879e-07 4.31975e-07 4.31925e-07 4.31879e-07 -7.28633e-07 -7.28632e-07 4.31879e-07 4.31975e-07 -7.28632e-07 -7.28542e-07 -7.28874e-07 -7.28717e-07 -1.72164e-06 -1.72135e-06 -7.28717e-07 -7.28633e-07 -1.72135e-06 -1.72117e-06 -1.72164e-06 -1.72135e-06 4.36551e-06 4.36598e-06 -1.72135e-06 -1.72117e-06 4.36598e-06 4.36632e-06 -7.28633e-07 -7.28632e-07 -1.72117e-06 -1.72108e-06 -7.28632e-07 -7.28542e-07 -1.72108e-06 -1.72097e-06 -1.72117e-06 -1.72108e-06 4.36632e-06 4.36652e-06 -1.72108e-06 -1.72097e-06 4.36652e-06 4.36663e-06 2.52786e-08 2.53043e-08 4.31975e-07 4.32683e-07 2.53043e-08 2.5305e-08 4.32683e-07 4.32918e-07 4.31975e-07 4.32683e-07 -7.28542e-07 -7.28101e-07 4.32683e-07 4.32918e-07 -7.28101e-07 -7.27862e-07 2.5305e-08 2.52354e-08 4.32918e-07 4.27908e-07 2.52354e-08 2.51999e-08 4.27908e-07 4.13479e-07 4.32918e-07 4.27908e-07 -7.27862e-07 -7.27559e-07 4.27908e-07 4.13479e-07 -7.27559e-07 -7.25435e-07 -7.28542e-07 -7.28101e-07 -1.72097e-06 -1.72075e-06 -7.28101e-07 -7.27862e-07 -1.72075e-06 -1.72072e-06 -1.72097e-06 -1.72075e-06 4.36663e-06 4.36681e-06 -1.72075e-06 -1.72072e-06 4.36681e-06 4.36711e-06 -7.27862e-07 -7.27559e-07 -1.72072e-06 -1.72084e-06 -7.27559e-07 -7.25435e-07 -1.72084e-06 -1.71889e-06 -1.72072e-06 -1.72084e-06 4.36711e-06 4.36706e-06 -1.72084e-06 -1.71889e-06 4.36706e-06 4.36571e-06 4.36551e-06 4.36598e-06 9.83122e-06 9.83192e-06 4.36598e-06 4.36632e-06 9.83192e-06 9.83246e-06 9.83122e-06 9.83192e-06 -1.06807e-05 -1.06797e-05 9.83192e-06 9.83246e-06 -1.06797e-05 -1.0679e-05 4.36632e-06 4.36652e-06 9.83246e-06 9.83282e-06 4.36652e-06 4.36663e-06 9.83282e-06 9.83302e-06 9.83246e-06 9.83282e-06 -1.0679e-05 -1.06784e-05 9.83282e-06 9.83302e-06 -1.06784e-05 -1.06781e-05 -1.06807e-05 -1.06797e-05 -6.99393e-05 -6.99379e-05 -1.06797e-05 -1.0679e-05 -6.99379e-05 -6.99369e-05 -6.99393e-05 -6.99379e-05 -0.000158668 -0.000158667 -6.99379e-05 -6.99369e-05 -0.000158667 -0.000158665 -1.0679e-05 -1.06784e-05 -6.99369e-05 -6.99362e-05 -1.06784e-05 -1.06781e-05 -6.99362e-05 -6.99357e-05 -6.99369e-05 -6.99362e-05 -0.000158665 -0.000158665 -6.99362e-05 -6.99357e-05 -0.000158665 -0.000158664 4.36663e-06 4.36681e-06 9.83302e-06 9.8331e-06 4.36681e-06 4.36711e-06 9.8331e-06 9.83324e-06 9.83302e-06 9.8331e-06 -1.06781e-05 -1.06779e-05 9.8331e-06 9.83324e-06 -1.06779e-05 -1.06779e-05 4.36711e-06 4.36706e-06 9.83324e-06 9.83348e-06 4.36706e-06 4.36571e-06 9.83348e-06 9.83367e-06 9.83324e-06 9.83348e-06 -1.06779e-05 -1.06778e-05 9.83348e-06 9.83367e-06 -1.06778e-05 -1.06777e-05 -1.06781e-05 -1.06779e-05 -6.99357e-05 -6.99354e-05 -1.06779e-05 -1.06779e-05 -6.99354e-05 -6.99352e-05 -6.99357e-05 -6.99354e-05 -0.000158664 -0.000158664 -6.99354e-05 -6.99352e-05 -0.000158664 -0.000158663 -1.06779e-05 -1.06778e-05 -6.99352e-05 -6.99352e-05 -1.06778e-05 -1.06777e-05 -6.99352e-05 -6.99352e-05 -6.99352e-05 -6.99352e-05 -0.000158663 -0.000158663 -6.99352e-05 -6.99352e-05 -0.000158663 -0.000158663 -0.000158692 -0.00015869 -0.000262103 -0.000262099 -0.00015869 -0.000158687 -0.000262099 -0.000262094 -0.000262103 -0.000262099 -0.000370503 -0.000370497 -0.000262099 -0.000262094 -0.000370497 -0.000370491 -0.000158687 -0.000158684 -0.000262094 -0.00026209 -0.000158684 -0.00015868 -0.00026209 -0.000262085 -0.000262094 -0.00026209 -0.000370491 -0.000370484 -0.00026209 -0.000262085 -0.000370484 -0.000370479 -0.000370503 -0.000370497 -0.000480205 -0.000480197 -0.000370497 -0.000370491 -0.000480197 -0.000480189 -0.000480205 -0.000480197 -0.000590126 -0.000590115 -0.000480197 -0.000480189 -0.000590115 -0.000590105 -0.000370491 -0.000370484 -0.000480189 -0.000480181 -0.000370484 -0.000370479 -0.000480181 -0.000480175 -0.000480189 -0.000480181 -0.000590105 -0.000590096 -0.000480181 -0.000480175 -0.000590096 -0.000590089 -0.00015868 -0.000158677 -0.000262085 -0.000262081 -0.000158677 -0.000158673 -0.000262081 -0.000262077 -0.000262085 -0.000262081 -0.000370479 -0.000370474 -0.000262081 -0.000262077 -0.000370474 -0.000370469 -0.000158673 -0.000158671 -0.000262077 -0.000262074 -0.000158671 -0.000158668 -0.000262074 -0.000262071 -0.000262077 -0.000262074 -0.000370469 -0.000370466 -0.000262074 -0.000262071 -0.000370466 -0.000370463 -0.000370479 -0.000370474 -0.000480175 -0.000480169 -0.000370474 -0.000370469 -0.000480169 -0.000480165 -0.000480175 -0.000480169 -0.000590089 -0.000590083 -0.000480169 -0.000480165 -0.000590083 -0.000590079 -0.000370469 -0.000370466 -0.000480165 -0.000480161 -0.000370466 -0.000370463 -0.000480161 -0.000480158 -0.000480165 -0.000480161 -0.000590079 -0.000590075 -0.000480161 -0.000480158 -0.000590075 -0.000590072 -0.000590126 -0.000590115 -0.000700096 -0.000700083 -0.000590115 -0.000590105 -0.000700083 -0.000700071 -0.000700096 -0.000700083 -0.000810068 -0.000810052 -0.000700083 -0.000700071 -0.000810052 -0.00081004 -0.000590105 -0.000590096 -0.000700071 -0.000700062 -0.000590096 -0.000590089 -0.000700062 -0.000700055 -0.000700071 -0.000700062 -0.00081004 -0.000810032 -0.000700062 -0.000700055 -0.000810032 -0.000810026 -0.000810068 -0.000810052 -0.000920046 -0.000920027 -0.000810052 -0.00081004 -0.000920027 -0.000920018 -0.000920046 -0.000920027 -0.00103 -0.00103 -0.000920027 -0.000920018 -0.00103 -0.00103 -0.00081004 -0.000810032 -0.000920018 -0.000920013 -0.000810032 -0.000810026 -0.000920013 -0.00092001 -0.000920018 -0.000920013 -0.00103 -0.00103 -0.000920013 -0.00092001 -0.00103 -0.00103 -0.000590089 -0.000590083 -0.000700055 -0.00070005 -0.000590083 -0.000590079 -0.00070005 -0.000700046 -0.000700055 -0.00070005 -0.000810026 -0.000810022 -0.00070005 -0.000700046 -0.000810022 -0.000810019 -0.000590079 -0.000590075 -0.000700046 -0.000700043 -0.000590075 -0.000590072 -0.000700043 -0.00070004 -0.000700046 -0.000700043 -0.000810019 -0.000810016 -0.000700043 -0.00070004 -0.000810016 -0.000810015 -0.000810026 -0.000810022 -0.00092001 -0.000920007 -0.000810022 -0.000810019 -0.000920007 -0.000920006 -0.00092001 -0.000920007 -0.00103 -0.00103 -0.000920007 -0.000920006 -0.00103 -0.00103 -0.000810019 -0.000810016 -0.000920006 -0.000920005 -0.000810016 -0.000810015 -0.000920005 -0.000920004 -0.000920006 -0.000920005 -0.00103 -0.00103 -0.000920005 -0.000920004 -0.00103 -0.00103 -0.000158668 -0.000158667 -0.000262071 -0.000262069 -0.000158667 -0.000158665 -0.000262069 -0.000262067 -0.000262071 -0.000262069 -0.000370463 -0.00037046 -0.000262069 -0.000262067 -0.00037046 -0.000370458 -0.000158665 -0.000158665 -0.000262067 -0.000262066 -0.000158665 -0.000158664 -0.000262066 -0.000262066 -0.000262067 -0.000262066 -0.000370458 -0.000370457 -0.000262066 -0.000262066 -0.000370457 -0.000370456 -0.000370463 -0.00037046 -0.000480158 -0.000480155 -0.00037046 -0.000370458 -0.000480155 -0.000480153 -0.000480158 -0.000480155 -0.000590072 -0.00059007 -0.000480155 -0.000480153 -0.00059007 -0.000590068 -0.000370458 -0.000370457 -0.000480153 -0.000480152 -0.000370457 -0.000370456 -0.000480152 -0.000480151 -0.000480153 -0.000480152 -0.000590068 -0.000590066 -0.000480152 -0.000480151 -0.000590066 -0.000590065 -0.000158664 -0.000158664 -0.000262066 -0.000262065 -0.000158664 -0.000158663 -0.000262065 -0.000262065 -0.000262066 -0.000262065 -0.000370456 -0.000370456 -0.000262065 -0.000262065 -0.000370456 -0.000370455 -0.000158663 -0.000158663 -0.000262065 -0.000262065 -0.000158663 -0.000158663 -0.000262065 -0.000262064 -0.000262065 -0.000262065 -0.000370455 -0.000370455 -0.000262065 -0.000262064 -0.000370455 -0.000370455 -0.000370456 -0.000370456 -0.000480151 -0.00048015 -0.000370456 -0.000370455 -0.00048015 -0.00048015 -0.000480151 -0.00048015 -0.000590065 -0.000590065 -0.00048015 -0.00048015 -0.000590065 -0.000590064 -0.000370455 -0.000370455 -0.00048015 -0.00048015 -0.000370455 -0.000370455 -0.00048015 -0.000480149 -0.00048015 -0.00048015 -0.000590064 -0.000590064 -0.00048015 -0.000480149 -0.000590064 -0.000590064 -0.000590072 -0.00059007 -0.00070004 -0.000700038 -0.00059007 -0.000590068 -0.000700038 -0.000700037 -0.00070004 -0.000700038 -0.000810015 -0.000810013 -0.000700038 -0.000700037 -0.000810013 -0.000810012 -0.000590068 -0.000590066 -0.000700037 -0.000700035 -0.000590066 -0.000590065 -0.000700035 -0.000700034 -0.000700037 -0.000700035 -0.000810012 -0.000810011 -0.000700035 -0.000700034 -0.000810011 -0.000810011 -0.000810015 -0.000810013 -0.000920004 -0.000920003 -0.000810013 -0.000810012 -0.000920003 -0.000920003 -0.000920004 -0.000920003 -0.00103 -0.00103 -0.000920003 -0.000920003 -0.00103 -0.00103 -0.000810012 -0.000810011 -0.000920003 -0.000920002 -0.000810011 -0.000810011 -0.000920002 -0.000920002 -0.000920003 -0.000920002 -0.00103 -0.00103 -0.000920002 -0.000920002 -0.00103 -0.00103 -0.000590065 -0.000590065 -0.000700034 -0.000700034 -0.000590065 -0.000590064 -0.000700034 -0.000700033 -0.000700034 -0.000700034 -0.000810011 -0.00081001 -0.000700034 -0.000700033 -0.00081001 -0.00081001 -0.000590064 -0.000590064 -0.000700033 -0.000700033 -0.000590064 -0.000590064 -0.000700033 -0.000700033 -0.000700033 -0.000700033 -0.00081001 -0.000810009 -0.000700033 -0.000700033 -0.000810009 -0.000810009 -0.000810011 -0.00081001 -0.000920002 -0.000920001 -0.00081001 -0.00081001 -0.000920001 -0.000920001 -0.000920002 -0.000920001 -0.00103 -0.00103 -0.000920001 -0.000920001 -0.00103 -0.00103 -0.00081001 -0.000810009 -0.000920001 -0.000920001 -0.000810009 -0.000810009 -0.000920001 -0.000920001 -0.000920001 -0.000920001 -0.00103 -0.00103 -0.000920001 -0.000920001 -0.00103 -0.00103 2.51999e-08 1.04212e-07 4.13479e-07 3.73356e-07 1.04212e-07 6.85459e-08 3.73356e-07 3.5669e-07 4.13479e-07 3.73356e-07 -7.25435e-07 -7.15634e-07 3.73356e-07 3.5669e-07 -7.15634e-07 -7.09621e-07 6.85459e-08 4.70177e-08 3.5669e-07 3.49598e-07 4.70177e-08 4.7023e-08 3.49598e-07 3.51306e-07 3.5669e-07 3.49598e-07 -7.09621e-07 -7.07425e-07 3.49598e-07 3.51306e-07 -7.07425e-07 -7.07177e-07 -7.25435e-07 -7.15634e-07 -1.71889e-06 -1.71641e-06 -7.15634e-07 -7.09621e-07 -1.71641e-06 -1.71585e-06 -1.71889e-06 -1.71641e-06 4.36571e-06 4.36342e-06 -1.71641e-06 -1.71585e-06 4.36342e-06 4.36168e-06 -7.09621e-07 -7.07425e-07 -1.71585e-06 -1.71717e-06 -7.07425e-07 -7.07177e-07 -1.71717e-06 -1.71736e-06 -1.71585e-06 -1.71717e-06 4.36168e-06 4.36162e-06 -1.71717e-06 -1.71736e-06 4.36162e-06 4.36228e-06 4.7023e-08 5.03217e-08 3.51306e-07 3.54052e-07 5.03217e-08 5.12394e-08 3.54052e-07 3.54341e-07 3.51306e-07 3.54052e-07 -7.07177e-07 -7.06605e-07 3.54052e-07 3.54341e-07 -7.06605e-07 -7.06414e-07 5.12394e-08 5.08078e-08 3.54341e-07 3.53892e-07 5.08078e-08 5.05837e-08 3.53892e-07 3.5384e-07 3.54341e-07 3.53892e-07 -7.06414e-07 -7.06466e-07 3.53892e-07 3.5384e-07 -7.06466e-07 -7.06381e-07 -7.07177e-07 -7.06605e-07 -1.71736e-06 -1.71688e-06 -7.06605e-07 -7.06414e-07 -1.71688e-06 -1.71662e-06 -1.71736e-06 -1.71688e-06 4.36228e-06 4.36266e-06 -1.71688e-06 -1.71662e-06 4.36266e-06 4.36278e-06 -7.06414e-07 -7.06466e-07 -1.71662e-06 -1.71652e-06 -7.06466e-07 -7.06381e-07 -1.71652e-06 -1.7163e-06 -1.71662e-06 -1.71652e-06 4.36278e-06 4.36303e-06 -1.71652e-06 -1.7163e-06 4.36303e-06 4.3635e-06 4.36571e-06 4.36342e-06 9.83367e-06 9.83388e-06 4.36342e-06 4.36168e-06 9.83388e-06 9.83437e-06 9.83367e-06 9.83388e-06 -1.06777e-05 -1.06774e-05 9.83388e-06 9.83437e-06 -1.06774e-05 -1.06773e-05 4.36168e-06 4.36162e-06 9.83437e-06 9.83491e-06 4.36162e-06 4.36228e-06 9.83491e-06 9.83513e-06 9.83437e-06 9.83491e-06 -1.06773e-05 -1.06772e-05 9.83491e-06 9.83513e-06 -1.06772e-05 -1.06772e-05 -1.06777e-05 -1.06774e-05 -6.99352e-05 -6.99352e-05 -1.06774e-05 -1.06773e-05 -6.99352e-05 -6.99352e-05 -6.99352e-05 -6.99352e-05 -0.000158663 -0.000158663 -6.99352e-05 -6.99352e-05 -0.000158663 -0.000158663 -1.06773e-05 -1.06772e-05 -6.99352e-05 -6.99351e-05 -1.06772e-05 -1.06772e-05 -6.99351e-05 -6.99347e-05 -6.99352e-05 -6.99351e-05 -0.000158663 -0.000158663 -6.99351e-05 -6.99347e-05 -0.000158663 -0.000158662 4.36228e-06 4.36266e-06 9.83513e-06 9.83521e-06 4.36266e-06 4.36278e-06 9.83521e-06 9.83548e-06 9.83513e-06 9.83521e-06 -1.06772e-05 -1.06769e-05 9.83521e-06 9.83548e-06 -1.06769e-05 -1.06763e-05 4.36278e-06 4.36303e-06 9.83548e-06 9.83602e-06 4.36303e-06 4.3635e-06 9.83602e-06 9.83674e-06 9.83548e-06 9.83602e-06 -1.06763e-05 -1.06756e-05 9.83602e-06 9.83674e-06 -1.06756e-05 -1.06746e-05 -1.06772e-05 -1.06769e-05 -6.99347e-05 -6.99342e-05 -1.06769e-05 -1.06763e-05 -6.99342e-05 -6.99335e-05 -6.99347e-05 -6.99342e-05 -0.000158662 -0.000158662 -6.99342e-05 -6.99335e-05 -0.000158662 -0.000158661 -1.06763e-05 -1.06756e-05 -6.99335e-05 -6.99325e-05 -1.06756e-05 -1.06746e-05 -6.99325e-05 -6.99311e-05 -6.99335e-05 -6.99325e-05 -0.000158661 -0.000158659 -6.99325e-05 -6.99311e-05 -0.000158659 -0.000158658 5.05837e-08 5.07282e-08 3.5384e-07 3.53995e-07 5.07282e-08 5.08957e-08 3.53995e-07 3.54136e-07 3.5384e-07 3.53995e-07 -7.06381e-07 -7.06164e-07 3.53995e-07 3.54136e-07 -7.06164e-07 -7.05899e-07 5.08957e-08 5.10229e-08 3.54136e-07 3.54261e-07 5.10229e-08 5.11627e-08 3.54261e-07 3.54397e-07 3.54136e-07 3.54261e-07 -7.05899e-07 -7.0562e-07 3.54261e-07 3.54397e-07 -7.0562e-07 -7.05335e-07 -7.06381e-07 -7.06164e-07 -1.7163e-06 -1.71592e-06 -7.06164e-07 -7.05899e-07 -1.71592e-06 -1.71545e-06 -1.7163e-06 -1.71592e-06 4.3635e-06 4.36411e-06 -1.71592e-06 -1.71545e-06 4.36411e-06 4.36482e-06 -7.05899e-07 -7.0562e-07 -1.71545e-06 -1.71496e-06 -7.0562e-07 -7.05335e-07 -1.71496e-06 -1.71445e-06 -1.71545e-06 -1.71496e-06 4.36482e-06 4.36561e-06 -1.71496e-06 -1.71445e-06 4.36561e-06 4.36644e-06 5.11627e-08 5.13098e-08 3.54397e-07 3.54533e-07 5.13098e-08 5.14346e-08 3.54533e-07 3.54646e-07 3.54397e-07 3.54533e-07 -7.05335e-07 -7.05067e-07 3.54533e-07 3.54646e-07 -7.05067e-07 -7.04846e-07 5.14346e-08 5.1517e-08 3.54646e-07 3.5472e-07 5.1517e-08 5.15458e-08 3.5472e-07 3.54746e-07 3.54646e-07 3.5472e-07 -7.04846e-07 -7.04701e-07 3.5472e-07 3.54746e-07 -7.04701e-07 -7.0465e-07 -7.05335e-07 -7.05067e-07 -1.71445e-06 -1.71397e-06 -7.05067e-07 -7.04846e-07 -1.71397e-06 -1.71357e-06 -1.71445e-06 -1.71397e-06 4.36644e-06 4.36723e-06 -1.71397e-06 -1.71357e-06 4.36723e-06 4.36791e-06 -7.04846e-07 -7.04701e-07 -1.71357e-06 -1.7133e-06 -7.04701e-07 -7.0465e-07 -1.7133e-06 -1.7132e-06 -1.71357e-06 -1.7133e-06 4.36791e-06 4.36837e-06 -1.7133e-06 -1.7132e-06 4.36837e-06 4.36853e-06 4.3635e-06 4.36411e-06 9.83674e-06 9.83763e-06 4.36411e-06 4.36482e-06 9.83763e-06 9.83869e-06 9.83674e-06 9.83763e-06 -1.06746e-05 -1.06733e-05 9.83763e-06 9.83869e-06 -1.06733e-05 -1.06718e-05 4.36482e-06 4.36561e-06 9.83869e-06 9.83989e-06 4.36561e-06 4.36644e-06 9.83989e-06 9.84117e-06 9.83869e-06 9.83989e-06 -1.06718e-05 -1.067e-05 9.83989e-06 9.84117e-06 -1.067e-05 -1.06682e-05 -1.06746e-05 -1.06733e-05 -6.99311e-05 -6.99294e-05 -1.06733e-05 -1.06718e-05 -6.99294e-05 -6.99274e-05 -6.99311e-05 -6.99294e-05 -0.000158658 -0.000158655 -6.99294e-05 -6.99274e-05 -0.000158655 -0.000158653 -1.06718e-05 -1.067e-05 -6.99274e-05 -6.9925e-05 -1.067e-05 -1.06682e-05 -6.9925e-05 -6.99223e-05 -6.99274e-05 -6.9925e-05 -0.000158653 -0.00015865 -6.9925e-05 -6.99223e-05 -0.00015865 -0.000158646 4.36644e-06 4.36723e-06 9.84117e-06 9.84243e-06 4.36723e-06 4.36791e-06 9.84243e-06 9.84351e-06 9.84117e-06 9.84243e-06 -1.06682e-05 -1.06663e-05 9.84243e-06 9.84351e-06 -1.06663e-05 -1.06647e-05 4.36791e-06 4.36837e-06 9.84351e-06 9.84425e-06 4.36837e-06 4.36853e-06 9.84425e-06 9.84452e-06 9.84351e-06 9.84425e-06 -1.06647e-05 -1.06635e-05 9.84425e-06 9.84452e-06 -1.06635e-05 -1.0663e-05 -1.06682e-05 -1.06663e-05 -6.99223e-05 -6.99197e-05 -1.06663e-05 -1.06647e-05 -6.99197e-05 -6.99173e-05 -6.99223e-05 -6.99197e-05 -0.000158646 -0.000158643 -6.99197e-05 -6.99173e-05 -0.000158643 -0.000158639 -1.06647e-05 -1.06635e-05 -6.99173e-05 -6.99154e-05 -1.06635e-05 -1.0663e-05 -6.99154e-05 -6.99144e-05 -6.99173e-05 -6.99154e-05 -0.000158639 -0.000158636 -6.99154e-05 -6.99144e-05 -0.000158636 -0.000158634 -0.000158663 -0.000158663 -0.000262064 -0.000262064 -0.000158663 -0.000158663 -0.000262064 -0.000262064 -0.000262064 -0.000262064 -0.000370455 -0.000370455 -0.000262064 -0.000262064 -0.000370455 -0.000370455 -0.000158663 -0.000158663 -0.000262064 -0.000262064 -0.000158663 -0.000158662 -0.000262064 -0.000262063 -0.000262064 -0.000262064 -0.000370455 -0.000370454 -0.000262064 -0.000262063 -0.000370454 -0.000370454 -0.000370455 -0.000370455 -0.000480149 -0.000480149 -0.000370455 -0.000370455 -0.000480149 -0.000480149 -0.000480149 -0.000480149 -0.000590064 -0.000590064 -0.000480149 -0.000480149 -0.000590064 -0.000590063 -0.000370455 -0.000370454 -0.000480149 -0.000480149 -0.000370454 -0.0003704