# vtk DataFile Version 3.0
#This file was generated by the deal.II library on 2022/11/16 at 21:18:51
ASCII
DATASET UNSTRUCTURED_GRID

POINTS 4096 double
0 0.5 0
0.03125 0.5 0
0 0.53125 0
0.03125 0.53125 0
0.03125 0.5 0
0.0625 0.5 0
0.03125 0.53125 0
0.0625 0.53125 0
0 0.53125 0
0.03125 0.53125 0
0 0.5625 0
0.03125 0.5625 0
0.03125 0.53125 0
0.0625 0.53125 0
0.03125 0.5625 0
0.0625 0.5625 0
0.0625 0.5 0
0.09375 0.5 0
0.0625 0.53125 0
0.09375 0.53125 0
0.09375 0.5 0
0.125 0.5 0
0.09375 0.53125 0
0.125 0.53125 0
0.0625 0.53125 0
0.09375 0.53125 0
0.0625 0.5625 0
0.09375 0.5625 0
0.09375 0.53125 0
0.125 0.53125 0
0.09375 0.5625 0
0.125 0.5625 0
0 0.5625 0
0.03125 0.5625 0
0 0.59375 0
0.03125 0.59375 0
0.03125 0.5625 0
0.0625 0.5625 0
0.03125 0.59375 0
0.0625 0.59375 0
0 0.59375 0
0.03125 0.59375 0
0 0.625 0
0.03125 0.625 0
0.03125 0.59375 0
0.0625 0.59375 0
0.03125 0.625 0
0.0625 0.625 0
0.0625 0.5625 0
0.09375 0.5625 0
0.0625 0.59375 0
0.09375 0.59375 0
0.09375 0.5625 0
0.125 0.5625 0
0.09375 0.59375 0
0.125 0.59375 0
0.0625 0.59375 0
0.09375 0.59375 0
0.0625 0.625 0
0.09375 0.625 0
0.09375 0.59375 0
0.125 0.59375 0
0.09375 0.625 0
0.125 0.625 0
0.125 0.5 0
0.15625 0.5 0
0.125 0.53125 0
0.15625 0.53125 0
0.15625 0.5 0
0.1875 0.5 0
0.15625 0.53125 0
0.1875 0.53125 0
0.125 0.53125 0
0.15625 0.53125 0
0.125 0.5625 0
0.15625 0.5625 0
0.15625 0.53125 0
0.1875 0.53125 0
0.15625 0.5625 0
0.1875 0.5625 0
0.1875 0.5 0
0.21875 0.5 0
0.1875 0.53125 0
0.21875 0.53125 0
0.21875 0.5 0
0.25 0.5 0
0.21875 0.53125 0
0.25 0.53125 0
0.1875 0.53125 0
0.21875 0.53125 0
0.1875 0.5625 0
0.21875 0.5625 0
0.21875 0.53125 0
0.25 0.53125 0
0.21875 0.5625 0
0.25 0.5625 0
0.125 0.5625 0
0.15625 0.5625 0
0.125 0.59375 0
0.15625 0.59375 0
0.15625 0.5625 0
0.1875 0.5625 0
0.15625 0.59375 0
0.1875 0.59375 0
0.125 0.59375 0
0.15625 0.59375 0
0.125 0.625 0
0.15625 0.625 0
0.15625 0.59375 0
0.1875 0.59375 0
0.15625 0.625 0
0.1875 0.625 0
0.1875 0.5625 0
0.21875 0.5625 0
0.1875 0.59375 0
0.21875 0.59375 0
0.21875 0.5625 0
0.25 0.5625 0
0.21875 0.59375 0
0.25 0.59375 0
0.1875 0.59375 0
0.21875 0.59375 0
0.1875 0.625 0
0.21875 0.625 0
0.21875 0.59375 0
0.25 0.59375 0
0.21875 0.625 0
0.25 0.625 0
0 0.625 0
0.03125 0.625 0
0 0.65625 0
0.03125 0.65625 0
0.03125 0.625 0
0.0625 0.625 0
0.03125 0.65625 0
0.0625 0.65625 0
0 0.65625 0
0.03125 0.65625 0
0 0.6875 0
0.03125 0.6875 0
0.03125 0.65625 0
0.0625 0.65625 0
0.03125 0.6875 0
0.0625 0.6875 0
0.0625 0.625 0
0.09375 0.625 0
0.0625 0.65625 0
0.09375 0.65625 0
0.09375 0.625 0
0.125 0.625 0
0.09375 0.65625 0
0.125 0.65625 0
0.0625 0.65625 0
0.09375 0.65625 0
0.0625 0.6875 0
0.09375 0.6875 0
0.09375 0.65625 0
0.125 0.65625 0
0.09375 0.6875 0
0.125 0.6875 0
0 0.6875 0
0.03125 0.6875 0
0 0.71875 0
0.03125 0.71875 0
0.03125 0.6875 0
0.0625 0.6875 0
0.03125 0.71875 0
0.0625 0.71875 0
0 0.71875 0
0.03125 0.71875 0
0 0.75 0
0.03125 0.75 0
0.03125 0.71875 0
0.0625 0.71875 0
0.03125 0.75 0
0.0625 0.75 0
0.0625 0.6875 0
0.09375 0.6875 0
0.0625 0.71875 0
0.09375 0.71875 0
0.09375 0.6875 0
0.125 0.6875 0
0.09375 0.71875 0
0.125 0.71875 0
0.0625 0.71875 0
0.09375 0.71875 0
0.0625 0.75 0
0.09375 0.75 0
0.09375 0.71875 0
0.125 0.71875 0
0.09375 0.75 0
0.125 0.75 0
0.125 0.625 0
0.15625 0.625 0
0.125 0.65625 0
0.15625 0.65625 0
0.15625 0.625 0
0.1875 0.625 0
0.15625 0.65625 0
0.1875 0.65625 0
0.125 0.65625 0
0.15625 0.65625 0
0.125 0.6875 0
0.15625 0.6875 0
0.15625 0.65625 0
0.1875 0.65625 0
0.15625 0.6875 0
0.1875 0.6875 0
0.1875 0.625 0
0.21875 0.625 0
0.1875 0.65625 0
0.21875 0.65625 0
0.21875 0.625 0
0.25 0.625 0
0.21875 0.65625 0
0.25 0.65625 0
0.1875 0.65625 0
0.21875 0.65625 0
0.1875 0.6875 0
0.21875 0.6875 0
0.21875 0.65625 0
0.25 0.65625 0
0.21875 0.6875 0
0.25 0.6875 0
0.125 0.6875 0
0.15625 0.6875 0
0.125 0.71875 0
0.15625 0.71875 0
0.15625 0.6875 0
0.1875 0.6875 0
0.15625 0.71875 0
0.1875 0.71875 0
0.125 0.71875 0
0.15625 0.71875 0
0.125 0.75 0
0.15625 0.75 0
0.15625 0.71875 0
0.1875 0.71875 0
0.15625 0.75 0
0.1875 0.75 0
0.1875 0.6875 0
0.21875 0.6875 0
0.1875 0.71875 0
0.21875 0.71875 0
0.21875 0.6875 0
0.25 0.6875 0
0.21875 0.71875 0
0.25 0.71875 0
0.1875 0.71875 0
0.21875 0.71875 0
0.1875 0.75 0
0.21875 0.75 0
0.21875 0.71875 0
0.25 0.71875 0
0.21875 0.75 0
0.25 0.75 0
0.25 0.5 0
0.28125 0.5 0
0.25 0.53125 0
0.28125 0.53125 0
0.28125 0.5 0
0.3125 0.5 0
0.28125 0.53125 0
0.3125 0.53125 0
0.25 0.53125 0
0.28125 0.53125 0
0.25 0.5625 0
0.28125 0.5625 0
0.28125 0.53125 0
0.3125 0.53125 0
0.28125 0.5625 0
0.3125 0.5625 0
0.3125 0.5 0
0.34375 0.5 0
0.3125 0.53125 0
0.34375 0.53125 0
0.34375 0.5 0
0.375 0.5 0
0.34375 0.53125 0
0.375 0.53125 0
0.3125 0.53125 0
0.34375 0.53125 0
0.3125 0.5625 0
0.34375 0.5625 0
0.34375 0.53125 0
0.375 0.53125 0
0.34375 0.5625 0
0.375 0.5625 0
0.25 0.5625 0
0.28125 0.5625 0
0.25 0.59375 0
0.28125 0.59375 0
0.28125 0.5625 0
0.3125 0.5625 0
0.28125 0.59375 0
0.3125 0.59375 0
0.25 0.59375 0
0.28125 0.59375 0
0.25 0.625 0
0.28125 0.625 0
0.28125 0.59375 0
0.3125 0.59375 0
0.28125 0.625 0
0.3125 0.625 0
0.3125 0.5625 0
0.34375 0.5625 0
0.3125 0.59375 0
0.34375 0.59375 0
0.34375 0.5625 0
0.375 0.5625 0
0.34375 0.59375 0
0.375 0.59375 0
0.3125 0.59375 0
0.34375 0.59375 0
0.3125 0.625 0
0.34375 0.625 0
0.34375 0.59375 0
0.375 0.59375 0
0.34375 0.625 0
0.375 0.625 0
0.375 0.5 0
0.40625 0.5 0
0.375 0.53125 0
0.40625 0.53125 0
0.40625 0.5 0
0.4375 0.5 0
0.40625 0.53125 0
0.4375 0.53125 0
0.375 0.53125 0
0.40625 0.53125 0
0.375 0.5625 0
0.40625 0.5625 0
0.40625 0.53125 0
0.4375 0.53125 0
0.40625 0.5625 0
0.4375 0.5625 0
0.4375 0.5 0
0.46875 0.5 0
0.4375 0.53125 0
0.46875 0.53125 0
0.46875 0.5 0
0.5 0.5 0
0.46875 0.53125 0
0.5 0.53125 0
0.4375 0.53125 0
0.46875 0.53125 0
0.4375 0.5625 0
0.46875 0.5625 0
0.46875 0.53125 0
0.5 0.53125 0
0.46875 0.5625 0
0.5 0.5625 0
0.375 0.5625 0
0.40625 0.5625 0
0.375 0.59375 0
0.40625 0.59375 0
0.40625 0.5625 0
0.4375 0.5625 0
0.40625 0.59375 0
0.4375 0.59375 0
0.375 0.59375 0
0.40625 0.59375 0
0.375 0.625 0
0.40625 0.625 0
0.40625 0.59375 0
0.4375 0.59375 0
0.40625 0.625 0
0.4375 0.625 0
0.4375 0.5625 0
0.46875 0.5625 0
0.4375 0.59375 0
0.46875 0.59375 0
0.46875 0.5625 0
0.5 0.5625 0
0.46875 0.59375 0
0.5 0.59375 0
0.4375 0.59375 0
0.46875 0.59375 0
0.4375 0.625 0
0.46875 0.625 0
0.46875 0.59375 0
0.5 0.59375 0
0.46875 0.625 0
0.5 0.625 0
0.25 0.625 0
0.28125 0.625 0
0.25 0.65625 0
0.28125 0.65625 0
0.28125 0.625 0
0.3125 0.625 0
0.28125 0.65625 0
0.3125 0.65625 0
0.25 0.65625 0
0.28125 0.65625 0
0.25 0.6875 0
0.28125 0.6875 0
0.28125 0.65625 0
0.3125 0.65625 0
0.28125 0.6875 0
0.3125 0.6875 0
0.3125 0.625 0
0.34375 0.625 0
0.3125 0.65625 0
0.34375 0.65625 0
0.34375 0.625 0
0.375 0.625 0
0.34375 0.65625 0
0.375 0.65625 0
0.3125 0.65625 0
0.34375 0.65625 0
0.3125 0.6875 0
0.34375 0.6875 0
0.34375 0.65625 0
0.375 0.65625 0
0.34375 0.6875 0
0.375 0.6875 0
0.25 0.6875 0
0.28125 0.6875 0
0.25 0.71875 0
0.28125 0.71875 0
0.28125 0.6875 0
0.3125 0.6875 0
0.28125 0.71875 0
0.3125 0.71875 0
0.25 0.71875 0
0.28125 0.71875 0
0.25 0.75 0
0.28125 0.75 0
0.28125 0.71875 0
0.3125 0.71875 0
0.28125 0.75 0
0.3125 0.75 0
0.3125 0.6875 0
0.34375 0.6875 0
0.3125 0.71875 0
0.34375 0.71875 0
0.34375 0.6875 0
0.375 0.6875 0
0.34375 0.71875 0
0.375 0.71875 0
0.3125 0.71875 0
0.34375 0.71875 0
0.3125 0.75 0
0.34375 0.75 0
0.34375 0.71875 0
0.375 0.71875 0
0.34375 0.75 0
0.375 0.75 0
0.375 0.625 0
0.40625 0.625 0
0.375 0.65625 0
0.40625 0.65625 0
0.40625 0.625 0
0.4375 0.625 0
0.40625 0.65625 0
0.4375 0.65625 0
0.375 0.65625 0
0.40625 0.65625 0
0.375 0.6875 0
0.40625 0.6875 0
0.40625 0.65625 0
0.4375 0.65625 0
0.40625 0.6875 0
0.4375 0.6875 0
0.4375 0.625 0
0.46875 0.625 0
0.4375 0.65625 0
0.46875 0.65625 0
0.46875 0.625 0
0.5 0.625 0
0.46875 0.65625 0
0.5 0.65625 0
0.4375 0.65625 0
0.46875 0.65625 0
0.4375 0.6875 0
0.46875 0.6875 0
0.46875 0.65625 0
0.5 0.65625 0
0.46875 0.6875 0
0.5 0.6875 0
0.375 0.6875 0
0.40625 0.6875 0
0.375 0.71875 0
0.40625 0.71875 0
0.40625 0.6875 0
0.4375 0.6875 0
0.40625 0.71875 0
0.4375 0.71875 0
0.375 0.71875 0
0.40625 0.71875 0
0.375 0.75 0
0.40625 0.75 0
0.40625 0.71875 0
0.4375 0.71875 0
0.40625 0.75 0
0.4375 0.75 0
0.4375 0.6875 0
0.46875 0.6875 0
0.4375 0.71875 0
0.46875 0.71875 0
0.46875 0.6875 0
0.5 0.6875 0
0.46875 0.71875 0
0.5 0.71875 0
0.4375 0.71875 0
0.46875 0.71875 0
0.4375 0.75 0
0.46875 0.75 0
0.46875 0.71875 0
0.5 0.71875 0
0.46875 0.75 0
0.5 0.75 0
0 0.75 0
0.03125 0.75 0
0 0.78125 0
0.03125 0.78125 0
0.03125 0.75 0
0.0625 0.75 0
0.03125 0.78125 0
0.0625 0.78125 0
0 0.78125 0
0.03125 0.78125 0
0 0.8125 0
0.03125 0.8125 0
0.03125 0.78125 0
0.0625 0.78125 0
0.03125 0.8125 0
0.0625 0.8125 0
0.0625 0.75 0
0.09375 0.75 0
0.0625 0.78125 0
0.09375 0.78125 0
0.09375 0.75 0
0.125 0.75 0
0.09375 0.78125 0
0.125 0.78125 0
0.0625 0.78125 0
0.09375 0.78125 0
0.0625 0.8125 0
0.09375 0.8125 0
0.09375 0.78125 0
0.125 0.78125 0
0.09375 0.8125 0
0.125 0.8125 0
0 0.8125 0
0.03125 0.8125 0
0 0.84375 0
0.03125 0.84375 0
0.03125 0.8125 0
0.0625 0.8125 0
0.03125 0.84375 0
0.0625 0.84375 0
0 0.84375 0
0.03125 0.84375 0
0 0.875 0
0.03125 0.875 0
0.03125 0.84375 0
0.0625 0.84375 0
0.03125 0.875 0
0.0625 0.875 0
0.0625 0.8125 0
0.09375 0.8125 0
0.0625 0.84375 0
0.09375 0.84375 0
0.09375 0.8125 0
0.125 0.8125 0
0.09375 0.84375 0
0.125 0.84375 0
0.0625 0.84375 0
0.09375 0.84375 0
0.0625 0.875 0
0.09375 0.875 0
0.09375 0.84375 0
0.125 0.84375 0
0.09375 0.875 0
0.125 0.875 0
0.125 0.75 0
0.15625 0.75 0
0.125 0.78125 0
0.15625 0.78125 0
0.15625 0.75 0
0.1875 0.75 0
0.15625 0.78125 0
0.1875 0.78125 0
0.125 0.78125 0
0.15625 0.78125 0
0.125 0.8125 0
0.15625 0.8125 0
0.15625 0.78125 0
0.1875 0.78125 0
0.15625 0.8125 0
0.1875 0.8125 0
0.1875 0.75 0
0.21875 0.75 0
0.1875 0.78125 0
0.21875 0.78125 0
0.21875 0.75 0
0.25 0.75 0
0.21875 0.78125 0
0.25 0.78125 0
0.1875 0.78125 0
0.21875 0.78125 0
0.1875 0.8125 0
0.21875 0.8125 0
0.21875 0.78125 0
0.25 0.78125 0
0.21875 0.8125 0
0.25 0.8125 0
0.125 0.8125 0
0.15625 0.8125 0
0.125 0.84375 0
0.15625 0.84375 0
0.15625 0.8125 0
[...]
POINT_DATA 4096
SCALARS x_dis double 1
LOOKUP_TABLE default
4.12618e-11 4.12618e-11 -1.13286e-10 -1.13286e-10 4.12618e-11 4.12619e-11 -1.13286e-10 -1.13286e-10 -1.13286e-10 -1.13286e-10 1.60729e-10 1.60729e-10 -1.13286e-10 -1.13286e-10 1.60729e-10 1.60729e-10 4.12619e-11 4.12619e-11 -1.13286e-10 -1.13287e-10 4.12619e-11 4.12619e-11 -1.13287e-10 -1.13287e-10 -1.13286e-10 -1.13287e-10 1.60729e-10 1.60729e-10 -1.13287e-10 -1.13287e-10 1.60729e-10 1.60729e-10 1.60729e-10 1.60729e-10 3.74224e-10 3.74225e-10 1.60729e-10 1.60729e-10 3.74225e-10 3.74227e-10 3.74224e-10 3.74225e-10 -3.58482e-09 -3.58482e-09 3.74225e-10 3.74227e-10 -3.58482e-09 -3.58483e-09 1.60729e-10 1.60729e-10 3.74227e-10 3.74229e-10 1.60729e-10 1.60729e-10 3.74229e-10 3.7423e-10 3.74227e-10 3.74229e-10 -3.58483e-09 -3.58484e-09 3.74229e-10 3.7423e-10 -3.58484e-09 -3.58484e-09 4.12619e-11 4.12619e-11 -1.13287e-10 -1.13287e-10 4.12619e-11 4.12619e-11 -1.13287e-10 -1.13287e-10 -1.13287e-10 -1.13287e-10 1.60729e-10 1.60729e-10 -1.13287e-10 -1.13287e-10 1.60729e-10 1.60729e-10 4.12619e-11 4.12619e-11 -1.13287e-10 -1.13287e-10 4.12619e-11 4.12619e-11 -1.13287e-10 -1.13287e-10 -1.13287e-10 -1.13287e-10 1.60729e-10 1.60729e-10 -1.13287e-10 -1.13287e-10 1.60729e-10 1.60729e-10 1.60729e-10 1.60729e-10 3.7423e-10 3.7423e-10 1.60729e-10 1.60729e-10 3.7423e-10 3.7423e-10 3.7423e-10 3.7423e-10 -3.58484e-09 -3.58485e-09 3.7423e-10 3.7423e-10 -3.58485e-09 -3.58485e-09 1.60729e-10 1.60729e-10 3.7423e-10 3.7423e-10 1.60729e-10 1.60729e-10 3.7423e-10 3.7423e-10 3.7423e-10 3.7423e-10 -3.58485e-09 -3.58485e-09 3.7423e-10 3.7423e-10 -3.58485e-09 -3.58485e-09 -3.58482e-09 -3.58482e-09 1.35008e-08 1.35008e-08 -3.58482e-09 -3.58483e-09 1.35008e-08 1.35008e-08 1.35008e-08 1.35008e-08 -2.58793e-08 -2.58793e-08 1.35008e-08 1.35008e-08 -2.58793e-08 -2.58792e-08 -3.58483e-09 -3.58484e-09 1.35008e-08 1.35008e-08 -3.58484e-09 -3.58484e-09 1.35008e-08 1.35008e-08 1.35008e-08 1.35008e-08 -2.58792e-08 -2.5879e-08 1.35008e-08 1.35008e-08 -2.5879e-08 -2.58789e-08 -2.58793e-08 -2.58793e-08 -2.14873e-08 -2.14873e-08 -2.58793e-08 -2.58792e-08 -2.14873e-08 -2.14873e-08 -2.14873e-08 -2.14873e-08 3.31755e-07 3.31754e-07 -2.14873e-08 -2.14873e-08 3.31754e-07 3.31752e-07 -2.58792e-08 -2.5879e-08 -2.14873e-08 -2.14875e-08 -2.5879e-08 -2.58789e-08 -2.14875e-08 -2.14877e-08 -2.14873e-08 -2.14875e-08 3.31752e-07 3.3175e-07 -2.14875e-08 -2.14877e-08 3.3175e-07 3.31749e-07 -3.58484e-09 -3.58485e-09 1.35008e-08 1.35008e-08 -3.58485e-09 -3.58485e-09 1.35008e-08 1.35008e-08 1.35008e-08 1.35008e-08 -2.58789e-08 -2.58789e-08 1.35008e-08 1.35008e-08 -2.58789e-08 -2.58789e-08 -3.58485e-09 -3.58485e-09 1.35008e-08 1.35008e-08 -3.58485e-09 -3.58485e-09 1.35008e-08 1.35008e-08 1.35008e-08 1.35008e-08 -2.58789e-08 -2.58789e-08 1.35008e-08 1.35008e-08 -2.58789e-08 -2.58789e-08 -2.58789e-08 -2.58789e-08 -2.14877e-08 -2.14877e-08 -2.58789e-08 -2.58789e-08 -2.14877e-08 -2.14877e-08 -2.14877e-08 -2.14877e-08 3.31749e-07 3.31748e-07 -2.14877e-08 -2.14877e-08 3.31748e-07 3.31748e-07 -2.58789e-08 -2.58789e-08 -2.14877e-08 -2.14877e-08 -2.58789e-08 -2.58789e-08 -2.14877e-08 -2.14877e-08 -2.14877e-08 -2.14877e-08 3.31748e-07 3.31748e-07 -2.14877e-08 -2.14877e-08 3.31748e-07 3.31748e-07 4.12619e-11 4.12619e-11 -1.13287e-10 -1.13287e-10 4.12619e-11 4.12619e-11 -1.13287e-10 -1.13286e-10 -1.13287e-10 -1.13287e-10 1.60729e-10 1.60729e-10 -1.13287e-10 -1.13286e-10 1.60729e-10 1.6073e-10 4.12619e-11 4.1262e-11 -1.13286e-10 -1.13286e-10 4.1262e-11 4.12618e-11 -1.13286e-10 -1.13295e-10 -1.13286e-10 -1.13286e-10 1.6073e-10 1.60729e-10 -1.13286e-10 -1.13295e-10 1.60729e-10 1.60726e-10 1.60729e-10 1.60729e-10 3.7423e-10 3.7423e-10 1.60729e-10 1.6073e-10 3.7423e-10 3.7423e-10 3.7423e-10 3.7423e-10 -3.58485e-09 -3.58485e-09 3.7423e-10 3.7423e-10 -3.58485e-09 -3.58485e-09 1.6073e-10 1.60729e-10 3.7423e-10 3.7423e-10 1.60729e-10 1.60726e-10 3.7423e-10 3.74228e-10 3.7423e-10 3.7423e-10 -3.58485e-09 -3.58485e-09 3.7423e-10 3.74228e-10 -3.58485e-09 -3.58485e-09 4.12618e-11 4.12617e-11 -1.13295e-10 -1.1327e-10 4.12617e-11 4.12634e-11 -1.1327e-10 -1.13218e-10 -1.13295e-10 -1.1327e-10 1.60726e-10 1.60748e-10 -1.1327e-10 -1.13218e-10 1.60748e-10 1.60684e-10 4.12634e-11 4.12596e-11 -1.13218e-10 -1.13631e-10 4.12596e-11 4.12557e-11 -1.13631e-10 -1.13766e-10 -1.13218e-10 -1.13631e-10 1.60684e-10 1.60826e-10 -1.13631e-10 -1.13766e-10 1.60826e-10 1.60602e-10 1.60726e-10 1.60748e-10 3.74228e-10 3.74228e-10 1.60748e-10 1.60684e-10 3.74228e-10 3.74263e-10 3.74228e-10 3.74228e-10 -3.58485e-09 -3.58485e-09 3.74228e-10 3.74263e-10 -3.58485e-09 -3.58485e-09 1.60684e-10 1.60826e-10 3.74263e-10 3.74147e-10 1.60826e-10 1.60602e-10 3.74147e-10 3.74333e-10 3.74263e-10 3.74147e-10 -3.58485e-09 -3.58479e-09 3.74147e-10 3.74333e-10 -3.58479e-09 -3.58488e-09 -3.58485e-09 -3.58485e-09 1.35008e-08 1.35008e-08 -3.58485e-09 -3.58485e-09 1.35008e-08 1.35008e-08 1.35008e-08 1.35008e-08 -2.58789e-08 -2.58789e-08 1.35008e-08 1.35008e-08 -2.58789e-08 -2.58789e-08 -3.58485e-09 -3.58485e-09 1.35008e-08 1.35008e-08 -3.58485e-09 -3.58485e-09 1.35008e-08 1.35008e-08 1.35008e-08 1.35008e-08 -2.58789e-08 -2.58789e-08 1.35008e-08 1.35008e-08 -2.58789e-08 -2.58789e-08 -2.58789e-08 -2.58789e-08 -2.14877e-08 -2.14877e-08 -2.58789e-08 -2.58789e-08 -2.14877e-08 -2.14877e-08 -2.14877e-08 -2.14877e-08 3.31748e-07 3.31748e-07 -2.14877e-08 -2.14877e-08 3.31748e-07 3.31748e-07 -2.58789e-08 -2.58789e-08 -2.14877e-08 -2.14877e-08 -2.58789e-08 -2.58789e-08 -2.14877e-08 -2.14877e-08 -2.14877e-08 -2.14877e-08 3.31748e-07 3.31748e-07 -2.14877e-08 -2.14877e-08 3.31748e-07 3.31748e-07 -3.58485e-09 -3.58485e-09 1.35008e-08 1.35008e-08 -3.58485e-09 -3.58485e-09 1.35008e-08 1.35008e-08 1.35008e-08 1.35008e-08 -2.58789e-08 -2.58789e-08 1.35008e-08 1.35008e-08 -2.58789e-08 -2.58789e-08 -3.58485e-09 -3.58479e-09 1.35008e-08 1.35008e-08 -3.58479e-09 -3.58488e-09 1.35008e-08 1.35008e-08 1.35008e-08 1.35008e-08 -2.58789e-08 -2.58789e-08 1.35008e-08 1.35008e-08 -2.58789e-08 -2.58789e-08 -2.58789e-08 -2.58789e-08 -2.14877e-08 -2.14877e-08 -2.58789e-08 -2.58789e-08 -2.14877e-08 -2.14877e-08 -2.14877e-08 -2.14877e-08 3.31748e-07 3.31748e-07 -2.14877e-08 -2.14877e-08 3.31748e-07 3.31748e-07 -2.58789e-08 -2.58789e-08 -2.14877e-08 -2.14877e-08 -2.58789e-08 -2.58789e-08 -2.14877e-08 -2.14877e-08 -2.14877e-08 -2.14877e-08 3.31748e-07 3.31748e-07 -2.14877e-08 -2.14877e-08 3.31748e-07 3.31748e-07 3.31755e-07 3.31754e-07 -9.5732e-07 -9.57322e-07 3.31754e-07 3.31752e-07 -9.57322e-07 -9.57325e-07 -9.5732e-07 -9.57322e-07 -1.83001e-07 -1.82983e-07 -9.57322e-07 -9.57325e-07 -1.82983e-07 -1.82945e-07 3.31752e-07 3.3175e-07 -9.57325e-07 -9.57324e-07 3.3175e-07 3.31749e-07 -9.57324e-07 -9.57323e-07 -9.57325e-07 -9.57324e-07 -1.82945e-07 -1.82907e-07 -9.57324e-07 -9.57323e-07 -1.82907e-07 -1.8288e-07 -1.83001e-07 -1.82983e-07 8.65132e-06 8.65143e-06 -1.82983e-07 -1.82945e-07 8.65143e-06 8.65166e-06 8.65132e-06 8.65143e-06 -7.4592e-06 -7.45888e-06 8.65143e-06 8.65166e-06 -7.45888e-06 -7.45818e-06 -1.82945e-07 -1.82907e-07 8.65166e-06 8.65187e-06 -1.82907e-07 -1.8288e-07 8.65187e-06 8.65199e-06 8.65166e-06 8.65187e-06 -7.45818e-06 -7.45758e-06 8.65187e-06 8.65199e-06 -7.45758e-06 -7.45724e-06 3.31749e-07 3.31748e-07 -9.57323e-07 -9.57322e-07 3.31748e-07 3.31748e-07 -9.57322e-07 -9.57322e-07 -9.57323e-07 -9.57322e-07 -1.8288e-07 -1.82866e-07 -9.57322e-07 -9.57322e-07 -1.82866e-07 -1.82863e-07 3.31748e-07 3.31748e-07 -9.57322e-07 -9.57322e-07 3.31748e-07 3.31748e-07 -9.57322e-07 -9.57322e-07 -9.57322e-07 -9.57322e-07 -1.82863e-07 -1.82862e-07 -9.57322e-07 -9.57322e-07 -1.82862e-07 -1.82862e-07 -1.8288e-07 -1.82866e-07 8.65199e-06 8.65204e-06 -1.82866e-07 -1.82863e-07 8.65204e-06 8.65206e-06 8.65199e-06 8.65204e-06 -7.45724e-06 -7.45711e-06 8.65204e-06 8.65206e-06 -7.45711e-06 -7.45708e-06 -1.82863e-07 -1.82862e-07 8.65206e-06 8.65206e-06 -1.82862e-07 -1.82862e-07 8.65206e-06 8.65206e-06 8.65206e-06 8.65206e-06 -7.45708e-06 -7.45707e-06 8.65206e-06 8.65206e-06 -7.45707e-06 -7.45708e-06 -7.4592e-06 -7.45888e-06 -7.94971e-05 -7.94957e-05 -7.45888e-06 -7.45818e-06 -7.94957e-05 -7.94942e-05 -7.94971e-05 -7.94957e-05 -0.000181098 -0.000181095 -7.94957e-05 -7.94942e-05 -0.000181095 -0.000181092 -7.45818e-06 -7.45758e-06 -7.94942e-05 -7.94931e-05 -7.45758e-06 -7.45724e-06 -7.94931e-05 -7.94924e-05 -7.94942e-05 -7.94931e-05 -0.000181092 -0.00018109 -7.94931e-05 -7.94924e-05 -0.00018109 -0.00018109 -0.000181098 -0.000181095 -0.000290058 -0.000290051 -0.000181095 -0.000181092 -0.000290051 -0.000290048 -0.000290058 -0.000290051 -0.0004 -0.0004 -0.000290051 -0.000290048 -0.0004 -0.0004 -0.000181092 -0.00018109 -0.000290048 -0.000290047 -0.00018109 -0.00018109 -0.000290047 -0.000290047 -0.000290048 -0.000290047 -0.0004 -0.0004 -0.000290047 -0.000290047 -0.0004 -0.0004 -7.45724e-06 -7.45711e-06 -7.94924e-05 -7.94922e-05 -7.45711e-06 -7.45708e-06 -7.94922e-05 -7.94921e-05 -7.94924e-05 -7.94922e-05 -0.00018109 -0.000181089 -7.94922e-05 -7.94921e-05 -0.000181089 -0.000181089 -7.45708e-06 -7.45707e-06 -7.94921e-05 -7.94921e-05 -7.45707e-06 -7.45708e-06 -7.94921e-05 -7.94921e-05 -7.94921e-05 -7.94921e-05 -0.000181089 -0.000181089 -7.94921e-05 -7.94921e-05 -0.000181089 -0.000181089 -0.00018109 -0.000181089 -0.000290047 -0.000290046 -0.000181089 -0.000181089 -0.000290046 -0.000290046 -0.000290047 -0.000290046 -0.0004 -0.0004 -0.000290046 -0.000290046 -0.0004 -0.0004 -0.000181089 -0.000181089 -0.000290046 -0.000290046 -0.000181089 -0.000181089 -0.000290046 -0.000290046 -0.000290046 -0.000290046 -0.0004 -0.0004 -0.000290046 -0.000290046 -0.0004 -0.0004 3.31748e-07 3.31748e-07 -9.57322e-07 -9.57322e-07 3.31748e-07 3.31748e-07 -9.57322e-07 -9.57322e-07 -9.57322e-07 -9.57322e-07 -1.82862e-07 -1.82862e-07 -9.57322e-07 -9.57322e-07 -1.82862e-07 -1.82862e-07 3.31748e-07 3.31748e-07 -9.57322e-07 -9.57322e-07 3.31748e-07 3.31748e-07 -9.57322e-07 -9.57322e-07 -9.57322e-07 -9.57322e-07 -1.82862e-07 -1.82862e-07 -9.57322e-07 -9.57322e-07 -1.82862e-07 -1.82862e-07 -1.82862e-07 -1.82862e-07 8.65206e-06 8.65206e-06 -1.82862e-07 -1.82862e-07 8.65206e-06 8.65206e-06 8.65206e-06 8.65206e-06 -7.45708e-06 -7.45708e-06 8.65206e-06 8.65206e-06 -7.45708e-06 -7.45708e-06 -1.82862e-07 -1.82862e-07 8.65206e-06 8.65206e-06 -1.82862e-07 -1.82862e-07 8.65206e-06 8.65206e-06 8.65206e-06 8.65206e-06 -7.45708e-06 -7.45708e-06 8.65206e-06 8.65206e-06 -7.45708e-06 -7.45708e-06 3.31748e-07 3.31748e-07 -9.57322e-07 -9.57322e-07 3.31748e-07 3.31748e-07 -9.57322e-07 -9.57322e-07 -9.57322e-07 -9.57322e-07 -1.82862e-07 -1.82862e-07 -9.57322e-07 -9.57322e-07 -1.82862e-07 -1.82862e-07 3.31748e-07 3.31748e-07 -9.57322e-07 -9.57322e-07 3.31748e-07 3.31748e-07 -9.57322e-07 -9.57322e-07 -9.57322e-07 -9.57322e-07 -1.82862e-07 -1.82862e-07 -9.57322e-07 -9.57322e-07 -1.82862e-07 -1.82862e-07 -1.82862e-07 -1.82862e-07 8.65206e-06 8.65206e-06 -1.82862e-07 -1.82862e-07 8.65206e-06 8.65206e-06 8.65206e-06 8.65206e-06 -7.45708e-06 -7.45708e-06 8.65206e-06 8.65206e-06 -7.45708e-06 -7.45708e-06 -1.82862e-07 -1.82862e-07 8.65206e-06 8.65206e-06 -1.82862e-07 -1.82862e-07 8.65206e-06 8.65206e-06 8.65206e-06 8.65206e-06 -7.45708e-06 -7.45708e-06 8.65206e-06 8.65206e-06 -7.45708e-06 -7.45708e-06 -7.45708e-06 -7.45708e-06 -7.94921e-05 -7.94921e-05 -7.45708e-06 -7.45708e-06 -7.94921e-05 -7.94921e-05 -7.94921e-05 -7.94921e-05 -0.000181089 -0.000181089 -7.94921e-05 -7.94921e-05 -0.000181089 -0.000181089 -7.45708e-06 -7.45708e-06 -7.94921e-05 -7.94921e-05 -7.45708e-06 -7.45708e-06 -7.94921e-05 -7.94921e-05 -7.94921e-05 -7.94921e-05 -0.000181089 -0.000181089 -7.94921e-05 -7.94921e-05 -0.000181089 -0.000181089 -0.000181089 -0.000181089 -0.000290046 -0.000290046 -0.000181089 -0.000181089 -0.000290046 -0.000290046 -0.000290046 -0.000290046 -0.0004 -0.0004 -0.000290046 -0.000290046 -0.0004 -0.0004 -0.000181089 -0.000181089 -0.000290046 -0.000290046 -0.000181089 -0.000181089 -0.000290046 -0.000290046 -0.000290046 -0.000290046 -0.0004 -0.0004 -0.000290046 -0.000290046 -0.0004 -0.0004 -7.45708e-06 -7.45708e-06 -7.94921e-05 -7.94921e-05 -7.45708e-06 -7.45708e-06 -7.94921e-05 -7.94921e-05 -7.94921e-05 -7.94921e-05 -0.000181089 -0.000181089 -7.94921e-05 -7.94921e-05 -0.000181089 -0.000181089 -7.45708e-06 -7.45708e-06 -7.94921e-05 -7.94921e-05 -7.45708e-06 -7.45708e-06 -7.94921e-05 -7.94921e-05 -7.94921e-05 -7.94921e-05 -0.000181089 -0.000181089 -7.94921e-05 -7.94921e-05 -0.000181089 -0.000181089 -0.000181089 -0.000181089 -0.000290046 -0.000290046 -0.000181089 -0.000181089 -0.000290046 -0.000290046 -0.000290046 -0.000290046 -0.0004 -0.0004 -0.000290046 -0.000290046 -0.0004 -0.0004 -0.000181089 -0.000181089 -0.000290046 -0.000290046 -0.000181089 -0.000181089 -0.000290046 -0.000290046 -0.000290046 -0.000290046 -0.0004 -0.0004 -0.000290046 -0.000290046 -0.0004 -0.0004 4.12557e-11 8.36485e-11 -1.13766e-10 -1.22016e-10 8.36485e-11 8.58364e-11 -1.22016e-10 -1.23801e-10 -1.13766e-10 -1.22016e-10 1.60602e-10 1.61682e-10 -1.22016e-10 -1.23801e-10 1.61682e-10 1.62231e-10 8.58364e-11 8.18197e-11 -1.23801e-10 -1.23856e-10 8.18197e-11 8.23846e-11 -1.23856e-10 -1.2366e-10 -1.23801e-10 -1.23856e-10 1.62231e-10 1.62393e-10 -1.23856e-10 -1.2366e-10 1.62393e-10 1.6224e-10 1.60602e-10 1.61682e-10 3.74333e-10 3.74548e-10 1.61682e-10 1.62231e-10 3.74548e-10 3.74449e-10 3.74333e-10 3.74548e-10 -3.58488e-09 -3.58509e-09 3.74548e-10 3.74449e-10 -3.58509e-09 -3.58512e-09 1.62231e-10 1.62393e-10 3.74449e-10 3.74285e-10 1.62393e-10 1.6224e-10 3.74285e-10 3.74362e-10 3.74449e-10 3.74285e-10 -3.58512e-09 -3.58503e-09 3.74285e-10 3.74362e-10 -3.58503e-09 -3.58504e-09 8.23846e-11 8.26189e-11 -1.2366e-10 -1.23632e-10 8.26189e-11 8.25116e-11 -1.23632e-10 -1.2367e-10 -1.2366e-10 -1.23632e-10 1.6224e-10 1.62274e-10 -1.23632e-10 -1.2367e-10 1.62274e-10 1.62283e-10 8.25116e-11 8.25188e-11 -1.2367e-10 -1.23663e-10 8.25188e-11 8.25263e-11 -1.23663e-10 -1.23661e-10 -1.2367e-10 -1.23663e-10 1.62283e-10 1.62275e-10 -1.23663e-10 -1.23661e-10 1.62275e-10 1.62277e-10 1.6224e-10 1.62274e-10 3.74362e-10 3.74368e-10 1.62274e-10 1.62283e-10 3.74368e-10 3.74356e-10 3.74362e-10 3.74368e-10 -3.58504e-09 -3.58505e-09 3.74368e-10 3.74356e-10 -3.58505e-09 -3.58505e-09 1.62283e-10 1.62275e-10 3.74356e-10 3.74359e-10 1.62275e-10 1.62277e-10 3.74359e-10 3.74359e-10 3.74356e-10 3.74359e-10 -3.58505e-09 -3.58505e-09 3.74359e-10 3.74359e-10 -3.58505e-09 -3.58505e-09 -3.58488e-09 -3.58509e-09 1.35008e-08 1.35009e-08 -3.58509e-09 -3.58512e-09 1.35009e-08 1.35009e-08 1.35008e-08 1.35009e-08 -2.58789e-08 -2.58789e-08 1.35009e-08 1.35009e-08 -2.58789e-08 -2.58789e-08 -3.58512e-09 -3.58503e-09 1.35009e-08 1.35009e-08 -3.58503e-09 -3.58504e-09 1.35009e-08 1.35009e-08 1.35009e-08 1.35009e-08 -2.58789e-08 -2.58789e-08 1.35009e-08 1.35009e-08 -2.58789e-08 -2.58789e-08 -2.58789e-08 -2.58789e-08 -2.14877e-08 -2.14877e-08 -2.58789e-08 -2.58789e-08 -2.14877e-08 -2.14877e-08 -2.14877e-08 -2.14877e-08 3.31748e-07 3.31748e-07 -2.14877e-08 -2.14877e-08 3.31748e-07 3.31748e-07 -2.58789e-08 -2.58789e-08 -2.14877e-08 -2.14877e-08 -2.58789e-08 -2.58789e-08 -2.14877e-08 -2.14877e-08 -2.14877e-08 -2.14877e-08 3.31748e-07 3.31748e-07 -2.14877e-08 -2.14877e-08 3.31748e-07 3.31748e-07 -3.58504e-09 -3.58505e-09 1.35009e-08 1.35009e-08 -3.58505e-09 -3.58505e-09 1.35009e-08 1.35009e-08 1.35009e-08 1.35009e-08 -2.58789e-08 -2.58789e-08 1.35009e-08 1.35009e-08 -2.58789e-08 -2.58789e-08 -3.58505e-09 -3.58505e-09 1.35009e-08 1.35009e-08 -3.58505e-09 -3.58505e-09 1.35009e-08 1.35009e-08 1.35009e-08 1.35009e-08 -2.58789e-08 -2.58789e-08 1.35009e-08 1.35009e-08 -2.58789e-08 -2.58789e-08 -2.58789e-08 -2.58789e-08 -2.14877e-08 -2.14877e-08 -2.58789e-08 -2.58789e-08 -2.14877e-08 -2.14877e-08 -2.14877e-08 -2.14877e-08 3.31748e-07 3.31748e-07 -2.14877e-08 -2.14877e-08 3.31748e-07 3.31748e-07 -2.58789e-08 -2.58789e-08 -2.14877e-08 -2.14877e-08 -2.58789e-08 -2.58789e-08 -2.14877e-08 -2.14877e-08 -2.14877e-08 -2.14877e-08 3.31748e-07 3.31748e-07 -2.14877e-08 -2.14877e-08 3.31748e-07 3.31748e-07 8.25263e-11 8.25235e-11 -1.23661e-10 -1.23662e-10 8.25235e-11 8.25237e-11 -1.23662e-10 -1.23662e-10 -1.23661e-10 -1.23662e-10 1.62277e-10 1.62277e-10 -1.23662e-10 -1.23662e-10 1.62277e-10 1.62277e-10 8.25237e-11 8.25239e-11 -1.23662e-10 -1.23662e-10 8.25239e-11 8.25238e-11 -1.23662e-10 -1.23662e-10 -1.23662e-10 -1.23662e-10 1.62277e-10 1.62277e-10 -1.23662e-10 -1.23662e-10 1.62277e-10 1.62277e-10 1.62277e-10 1.62277e-10 3.74359e-10 3.74359e-10 1.62277e-10 1.62277e-10 3.74359e-10 3.74359e-10 3.74359e-10 3.74359e-10 -3.58505e-09 -3.58505e-09 3.74359e-10 3.74359e-10 -3.58505e-09 -3.58505e-09 1.62277e-10 1.62277e-10 3.74359e-10 3.74359e-10 1.62277e-10 1.62277e-10 3.74359e-10 3.74358e-10 3.74359e-10 3.74359e-10 -3.58505e-09 -3.58505e-09 3.74359e-10 3.74358e-10 -3.58505e-09 -3.58505e-09 8.25238e-11 8.25238e-11 -1.23662e-10 -1.23662e-10 8.25238e-11 8.25238e-11 -1.23662e-10 -1.23662e-10 -1.23662e-10 -1.23662e-10 1.62277e-10 1.62277e-10 -1.23662e-10 -1.23662e-10 1.62277e-10 1.62277e-10 8.25238e-11 8.25239e-11 -1.23662e-10 -1.23662e-10 8.25239e-11 8.2524e-11 -1.23662e-10 -1.23662e-10 -1.23662e-10 -1.23662e-10 1.62277e-10 1.62277e-10 -1.23662e-10 -1.23662e-10 1.62277e-10 1.62277e-10 1.62277e-10 1.62277e-10 3.74358e-10 3.74359e-10 1.62277e-10 1.62277e-10 3.74359e-10 3.74362e-10 3.74358e-10 3.74359e-10 -3.58505e-09 -3.58505e-09 3.74359e-10 3.74362e-10 -3.58505e-09 -3.58506e-09 1.62277e-10 1.62277e-10 3.74362e-10 3.74364e-10 1.62277e-10 1.62277e-10 3.74364e-10 3.74364e-10 3.74362e-10 3.74364e-10 -3.58506e-09 -3.58507e-09 3.74364e-10 3.74364e-10 -3.58507e-09 -3.58507e-09 -3.58505e-09 -3.58505e-09 1.35009e-08 1.35009e-08 -3.58505e-09 -3.58505e-09 1.35009e-08 1.35009e-08 1.35009e-08 1.35009e-08 -2.58789e-08 -2.58789e-08 1.35009e-08 1.35009e-08 -2.58789e-08 -2.58789e-08 -3.58505e-09 -3.58505e-09 1.35009e-08 1.35009e-08 -3.58505e-09 -3.58505e-09 1.35009e-08 1.35009e-08 1.35009e-08 1.35009e-08 -2.58789e-08 -2.58789e-08 1.35009e-08 1.35009e-08 -2.58789e-08 -2.58789e-08 -2.58789e-08 -2.58789e-08 -2.14877e-08 -2.14877e-08 -2.58789e-08 -2.58789e-08 -2.14877e-08 -2.14877e-08 -2.14877e-08 -2.14877e-08 3.31748e-07 3.31748e-07 -2.14877e-08 -2.14877e-08 3.31748e-07 3.31748e-07 -2.58789e-08 -2.58789e-08 -2.14877e-08 -2.14878e-08 -2.58789e-08 -2.58789e-08 -2.14878e-08 -2.14878e-08 -2.14877e-08 -2.14878e-08 3.31748e-07 3.31748e-07 -2.14878e-08 -2.14878e-08 3.31748e-07 3.31748e-07 -3.58505e-09 -3.58505e-09 1.35009e-08 1.35009e-08 -3.58505e-09 -3.58506e-09 1.35009e-08 1.35009e-08 1.35009e-08 1.35009e-08 -2.58789e-08 -2.58788e-08 1.35009e-08 1.35009e-08 -2.58788e-08 -2.58786e-08 -3.58506e-09 -3.58507e-09 1.35009e-08 1.35009e-08 -3.58507e-09 -3.58507e-09 1.35009e-08 1.35009e-08 1.35009e-08 1.35009e-08 -2.58786e-08 -2.58785e-08 1.35009e-08 1.35009e-08 -2.58785e-08 -2.58785e-08 -2.58789e-08 -2.58788e-08 -2.14878e-08 -2.14879e-08 -2.58788e-08 -2.58786e-08 -2.14879e-08 -2.14881e-08 -2.14878e-08 -2.14879e-08 3.31748e-07 3.31746e-07 -2.14879e-08 -2.14881e-08 3.31746e-07 3.31744e-07 -2.58786e-08 -2.58785e-08 -2.14881e-08 -2.14881e-08 -2.58785e-08 -2.58785e-08 -2.14881e-08 -2.14881e-08 -2.14881e-08 -2.14881e-08 3.31744e-07 3.31742e-07 -2.14881e-08 -2.14881e-08 3.31742e-07 3.31742e-07 3.31748e-07 3.31748e-07 -9.57322e-07 -9.57322e-07 3.31748e-07 3.31748e-07 -9.57322e-07 -9.57322e-07 -9.57322e-07 -9.57322e-07 -1.82862e-07 -1.82862e-07 -9.57322e-07 -9.57322e-07 -1.82862e-07 -1.82862e-07 3.31748e-07 3.31748e-07 -9.57322e-07 -9.57322e-07 3.31748e-07 3.31748e-07 -9.57322e-07 -9.57322e-07 -9.57322e-07 -9.57322e-07 -1.82862e-07 -1.82862e-07 -9.57322e-07 -9.57322e-07 -1.82862e-07 -1.82862e-07 -1.82862e-07 -1.82862e-07 8.65206e-06 8.65206e-06 -1.82862e-07 -1.82862e-07 8.65206e-06 8.65206e-06 8.65206e-06 8.65206e-06 -7.45708e-06 -7.45708e-06 8.65206e-06 8.65206e-06 -7.45708e-06 -7.45708e-06 -1.82862e-07 -1.82862e-07 8.65206e-06 8.65206e-06 -1.82862e-07 -1.82862e-07 8.65206e-06 8.65206e-06 8.65206e-06 8.65206e-06 -7.45708e-06 -7.45708e-06 8.65206e-06 8.65206e-06 -7.45708e-06 -7.45708e-06 3.31748e-07