# vtk DataFile Version 3.0
#This file was generated by the deal.II library on 2022/11/16 at 21:19:22
ASCII
DATASET UNSTRUCTURED_GRID

POINTS 4096 double
0 0.5 0
0.03125 0.5 0
0 0.53125 0
0.03125 0.53125 0
0.03125 0.5 0
0.0625 0.5 0
0.03125 0.53125 0
0.0625 0.53125 0
0 0.53125 0
0.03125 0.53125 0
0 0.5625 0
0.03125 0.5625 0
0.03125 0.53125 0
0.0625 0.53125 0
0.03125 0.5625 0
0.0625 0.5625 0
0.0625 0.5 0
0.09375 0.5 0
0.0625 0.53125 0
0.09375 0.53125 0
0.09375 0.5 0
0.125 0.5 0
0.09375 0.53125 0
0.125 0.53125 0
0.0625 0.53125 0
0.09375 0.53125 0
0.0625 0.5625 0
0.09375 0.5625 0
0.09375 0.53125 0
0.125 0.53125 0
0.09375 0.5625 0
0.125 0.5625 0
0 0.5625 0
0.03125 0.5625 0
0 0.59375 0
0.03125 0.59375 0
0.03125 0.5625 0
0.0625 0.5625 0
0.03125 0.59375 0
0.0625 0.59375 0
0 0.59375 0
0.03125 0.59375 0
0 0.625 0
0.03125 0.625 0
0.03125 0.59375 0
0.0625 0.59375 0
0.03125 0.625 0
0.0625 0.625 0
0.0625 0.5625 0
0.09375 0.5625 0
0.0625 0.59375 0
0.09375 0.59375 0
0.09375 0.5625 0
0.125 0.5625 0
0.09375 0.59375 0
0.125 0.59375 0
0.0625 0.59375 0
0.09375 0.59375 0
0.0625 0.625 0
0.09375 0.625 0
0.09375 0.59375 0
0.125 0.59375 0
0.09375 0.625 0
0.125 0.625 0
0.125 0.5 0
0.15625 0.5 0
0.125 0.53125 0
0.15625 0.53125 0
0.15625 0.5 0
0.1875 0.5 0
0.15625 0.53125 0
0.1875 0.53125 0
0.125 0.53125 0
0.15625 0.53125 0
0.125 0.5625 0
0.15625 0.5625 0
0.15625 0.53125 0
0.1875 0.53125 0
0.15625 0.5625 0
0.1875 0.5625 0
0.1875 0.5 0
0.21875 0.5 0
0.1875 0.53125 0
0.21875 0.53125 0
0.21875 0.5 0
0.25 0.5 0
0.21875 0.53125 0
0.25 0.53125 0
0.1875 0.53125 0
0.21875 0.53125 0
0.1875 0.5625 0
0.21875 0.5625 0
0.21875 0.53125 0
0.25 0.53125 0
0.21875 0.5625 0
0.25 0.5625 0
0.125 0.5625 0
0.15625 0.5625 0
0.125 0.59375 0
0.15625 0.59375 0
0.15625 0.5625 0
0.1875 0.5625 0
0.15625 0.59375 0
0.1875 0.59375 0
0.125 0.59375 0
0.15625 0.59375 0
0.125 0.625 0
0.15625 0.625 0
0.15625 0.59375 0
0.1875 0.59375 0
0.15625 0.625 0
0.1875 0.625 0
0.1875 0.5625 0
0.21875 0.5625 0
0.1875 0.59375 0
0.21875 0.59375 0
0.21875 0.5625 0
0.25 0.5625 0
0.21875 0.59375 0
0.25 0.59375 0
0.1875 0.59375 0
0.21875 0.59375 0
0.1875 0.625 0
0.21875 0.625 0
0.21875 0.59375 0
0.25 0.59375 0
0.21875 0.625 0
0.25 0.625 0
0 0.625 0
0.03125 0.625 0
0 0.65625 0
0.03125 0.65625 0
0.03125 0.625 0
0.0625 0.625 0
0.03125 0.65625 0
0.0625 0.65625 0
0 0.65625 0
0.03125 0.65625 0
0 0.6875 0
0.03125 0.6875 0
0.03125 0.65625 0
0.0625 0.65625 0
0.03125 0.6875 0
0.0625 0.6875 0
0.0625 0.625 0
0.09375 0.625 0
0.0625 0.65625 0
0.09375 0.65625 0
0.09375 0.625 0
0.125 0.625 0
0.09375 0.65625 0
0.125 0.65625 0
0.0625 0.65625 0
0.09375 0.65625 0
0.0625 0.6875 0
0.09375 0.6875 0
0.09375 0.65625 0
0.125 0.65625 0
0.09375 0.6875 0
0.125 0.6875 0
0 0.6875 0
0.03125 0.6875 0
0 0.71875 0
0.03125 0.71875 0
0.03125 0.6875 0
0.0625 0.6875 0
0.03125 0.71875 0
0.0625 0.71875 0
0 0.71875 0
0.03125 0.71875 0
0 0.75 0
0.03125 0.75 0
0.03125 0.71875 0
0.0625 0.71875 0
0.03125 0.75 0
0.0625 0.75 0
0.0625 0.6875 0
0.09375 0.6875 0
0.0625 0.71875 0
0.09375 0.71875 0
0.09375 0.6875 0
0.125 0.6875 0
0.09375 0.71875 0
0.125 0.71875 0
0.0625 0.71875 0
0.09375 0.71875 0
0.0625 0.75 0
0.09375 0.75 0
0.09375 0.71875 0
0.125 0.71875 0
0.09375 0.75 0
0.125 0.75 0
0.125 0.625 0
0.15625 0.625 0
0.125 0.65625 0
0.15625 0.65625 0
0.15625 0.625 0
0.1875 0.625 0
0.15625 0.65625 0
0.1875 0.65625 0
0.125 0.65625 0
0.15625 0.65625 0
0.125 0.6875 0
0.15625 0.6875 0
0.15625 0.65625 0
0.1875 0.65625 0
0.15625 0.6875 0
0.1875 0.6875 0
0.1875 0.625 0
0.21875 0.625 0
0.1875 0.65625 0
0.21875 0.65625 0
0.21875 0.625 0
0.25 0.625 0
0.21875 0.65625 0
0.25 0.65625 0
0.1875 0.65625 0
0.21875 0.65625 0
0.1875 0.6875 0
0.21875 0.6875 0
0.21875 0.65625 0
0.25 0.65625 0
0.21875 0.6875 0
0.25 0.6875 0
0.125 0.6875 0
0.15625 0.6875 0
0.125 0.71875 0
0.15625 0.71875 0
0.15625 0.6875 0
0.1875 0.6875 0
0.15625 0.71875 0
0.1875 0.71875 0
0.125 0.71875 0
0.15625 0.71875 0
0.125 0.75 0
0.15625 0.75 0
0.15625 0.71875 0
0.1875 0.71875 0
0.15625 0.75 0
0.1875 0.75 0
0.1875 0.6875 0
0.21875 0.6875 0
0.1875 0.71875 0
0.21875 0.71875 0
0.21875 0.6875 0
0.25 0.6875 0
0.21875 0.71875 0
0.25 0.71875 0
0.1875 0.71875 0
0.21875 0.71875 0
0.1875 0.75 0
0.21875 0.75 0
0.21875 0.71875 0
0.25 0.71875 0
0.21875 0.75 0
0.25 0.75 0
0.25 0.5 0
0.28125 0.5 0
0.25 0.53125 0
0.28125 0.53125 0
0.28125 0.5 0
0.3125 0.5 0
0.28125 0.53125 0
0.3125 0.53125 0
0.25 0.53125 0
0.28125 0.53125 0
0.25 0.5625 0
0.28125 0.5625 0
0.28125 0.53125 0
0.3125 0.53125 0
0.28125 0.5625 0
0.3125 0.5625 0
0.3125 0.5 0
0.34375 0.5 0
0.3125 0.53125 0
0.34375 0.53125 0
0.34375 0.5 0
0.375 0.5 0
0.34375 0.53125 0
0.375 0.53125 0
0.3125 0.53125 0
0.34375 0.53125 0
0.3125 0.5625 0
0.34375 0.5625 0
0.34375 0.53125 0
0.375 0.53125 0
0.34375 0.5625 0
0.375 0.5625 0
0.25 0.5625 0
0.28125 0.5625 0
0.25 0.59375 0
0.28125 0.59375 0
0.28125 0.5625 0
0.3125 0.5625 0
0.28125 0.59375 0
0.3125 0.59375 0
0.25 0.59375 0
0.28125 0.59375 0
0.25 0.625 0
0.28125 0.625 0
0.28125 0.59375 0
0.3125 0.59375 0
0.28125 0.625 0
0.3125 0.625 0
0.3125 0.5625 0
0.34375 0.5625 0
0.3125 0.59375 0
0.34375 0.59375 0
0.34375 0.5625 0
0.375 0.5625 0
0.34375 0.59375 0
0.375 0.59375 0
0.3125 0.59375 0
0.34375 0.59375 0
0.3125 0.625 0
0.34375 0.625 0
0.34375 0.59375 0
0.375 0.59375 0
0.34375 0.625 0
0.375 0.625 0
0.375 0.5 0
0.40625 0.5 0
0.375 0.53125 0
0.40625 0.53125 0
0.40625 0.5 0
0.4375 0.5 0
0.40625 0.53125 0
0.4375 0.53125 0
0.375 0.53125 0
0.40625 0.53125 0
0.375 0.5625 0
0.40625 0.5625 0
0.40625 0.53125 0
0.4375 0.53125 0
0.40625 0.5625 0
0.4375 0.5625 0
0.4375 0.5 0
0.46875 0.5 0
0.4375 0.53125 0
0.46875 0.53125 0
0.46875 0.5 0
0.5 0.5 0
0.46875 0.53125 0
0.5 0.53125 0
0.4375 0.53125 0
0.46875 0.53125 0
0.4375 0.5625 0
0.46875 0.5625 0
0.46875 0.53125 0
0.5 0.53125 0
0.46875 0.5625 0
0.5 0.5625 0
0.375 0.5625 0
0.40625 0.5625 0
0.375 0.59375 0
0.40625 0.59375 0
0.40625 0.5625 0
0.4375 0.5625 0
0.40625 0.59375 0
0.4375 0.59375 0
0.375 0.59375 0
0.40625 0.59375 0
0.375 0.625 0
0.40625 0.625 0
0.40625 0.59375 0
0.4375 0.59375 0
0.40625 0.625 0
0.4375 0.625 0
0.4375 0.5625 0
0.46875 0.5625 0
0.4375 0.59375 0
0.46875 0.59375 0
0.46875 0.5625 0
0.5 0.5625 0
0.46875 0.59375 0
0.5 0.59375 0
0.4375 0.59375 0
0.46875 0.59375 0
0.4375 0.625 0
0.46875 0.625 0
0.46875 0.59375 0
0.5 0.59375 0
0.46875 0.625 0
0.5 0.625 0
0.25 0.625 0
0.28125 0.625 0
0.25 0.65625 0
0.28125 0.65625 0
0.28125 0.625 0
0.3125 0.625 0
0.28125 0.65625 0
0.3125 0.65625 0
0.25 0.65625 0
0.28125 0.65625 0
0.25 0.6875 0
0.28125 0.6875 0
0.28125 0.65625 0
0.3125 0.65625 0
0.28125 0.6875 0
0.3125 0.6875 0
0.3125 0.625 0
0.34375 0.625 0
0.3125 0.65625 0
0.34375 0.65625 0
0.34375 0.625 0
0.375 0.625 0
0.34375 0.65625 0
0.375 0.65625 0
0.3125 0.65625 0
0.34375 0.65625 0
0.3125 0.6875 0
0.34375 0.6875 0
0.34375 0.65625 0
0.375 0.65625 0
0.34375 0.6875 0
0.375 0.6875 0
0.25 0.6875 0
0.28125 0.6875 0
0.25 0.71875 0
0.28125 0.71875 0
0.28125 0.6875 0
0.3125 0.6875 0
0.28125 0.71875 0
0.3125 0.71875 0
0.25 0.71875 0
0.28125 0.71875 0
0.25 0.75 0
0.28125 0.75 0
0.28125 0.71875 0
0.3125 0.71875 0
0.28125 0.75 0
0.3125 0.75 0
0.3125 0.6875 0
0.34375 0.6875 0
0.3125 0.71875 0
0.34375 0.71875 0
0.34375 0.6875 0
0.375 0.6875 0
0.34375 0.71875 0
0.375 0.71875 0
0.3125 0.71875 0
0.34375 0.71875 0
0.3125 0.75 0
0.34375 0.75 0
0.34375 0.71875 0
0.375 0.71875 0
0.34375 0.75 0
0.375 0.75 0
0.375 0.625 0
0.40625 0.625 0
0.375 0.65625 0
0.40625 0.65625 0
0.40625 0.625 0
0.4375 0.625 0
0.40625 0.65625 0
0.4375 0.65625 0
0.375 0.65625 0
0.40625 0.65625 0
0.375 0.6875 0
0.40625 0.6875 0
0.40625 0.65625 0
0.4375 0.65625 0
0.40625 0.6875 0
0.4375 0.6875 0
0.4375 0.625 0
0.46875 0.625 0
0.4375 0.65625 0
0.46875 0.65625 0
0.46875 0.625 0
0.5 0.625 0
0.46875 0.65625 0
0.5 0.65625 0
0.4375 0.65625 0
0.46875 0.65625 0
0.4375 0.6875 0
0.46875 0.6875 0
0.46875 0.65625 0
0.5 0.65625 0
0.46875 0.6875 0
0.5 0.6875 0
0.375 0.6875 0
0.40625 0.6875 0
0.375 0.71875 0
0.40625 0.71875 0
0.40625 0.6875 0
0.4375 0.6875 0
0.40625 0.71875 0
0.4375 0.71875 0
0.375 0.71875 0
0.40625 0.71875 0
0.375 0.75 0
0.40625 0.75 0
0.40625 0.71875 0
0.4375 0.71875 0
0.40625 0.75 0
0.4375 0.75 0
0.4375 0.6875 0
0.46875 0.6875 0
0.4375 0.71875 0
0.46875 0.71875 0
0.46875 0.6875 0
0.5 0.6875 0
0.46875 0.71875 0
0.5 0.71875 0
0.4375 0.71875 0
0.46875 0.71875 0
0.4375 0.75 0
0.46875 0.75 0
0.46875 0.71875 0
0.5 0.71875 0
0.46875 0.75 0
0.5 0.75 0
0 0.75 0
0.03125 0.75 0
0 0.78125 0
0.03125 0.78125 0
0.03125 0.75 0
0.0625 0.75 0
0.03125 0.78125 0
0.0625 0.78125 0
0 0.78125 0
0.03125 0.78125 0
0 0.8125 0
0.03125 0.8125 0
0.03125 0.78125 0
0.0625 0.78125 0
0.03125 0.8125 0
0.0625 0.8125 0
0.0625 0.75 0
0.09375 0.75 0
0.0625 0.78125 0
0.09375 0.78125 0
0.09375 0.75 0
0.125 0.75 0
0.09375 0.78125 0
0.125 0.78125 0
0.0625 0.78125 0
0.09375 0.78125 0
0.0625 0.8125 0
0.09375 0.8125 0
0.09375 0.78125 0
0.125 0.78125 0
0.09375 0.8125 0
0.125 0.8125 0
0 0.8125 0
0.03125 0.8125 0
0 0.84375 0
0.03125 0.84375 0
0.03125 0.8125 0
0.0625 0.8125 0
0.03125 0.84375 0
0.0625 0.84375 0
0 0.84375 0
0.03125 0.84375 0
0 0.875 0
0.03125 0.875 0
0.03125 0.84375 0
0.0625 0.84375 0
0.03125 0.875 0
0.0625 0.875 0
0.0625 0.8125 0
0.09375 0.8125 0
0.0625 0.84375 0
0.09375 0.84375 0
0.09375 0.8125 0
0.125 0.8125 0
0.09375 0.84375 0
0.125 0.84375 0
0.0625 0.84375 0
0.09375 0.84375 0
0.0625 0.875 0
0.09375 0.875 0
0.09375 0.84375 0
0.125 0.84375 0
0.09375 0.875 0
0.125 0.875 0
0.125 0.75 0
0.15625 0.75 0
0.125 0.78125 0
0.15625 0.78125 0
0.15625 0.75 0
0.1875 0.75 0
0.15625 0.78125 0
0.1875 0.78125 0
0.125 0.78125 0
0.15625 0.78125 0
0.125 0.8125 0
0.15625 0.8125 0
0.15625 0.78125 0
0.1875 0.78125 0
0.15625 0.8125 0
0.1875 0.8125 0
0.1875 0.75 0
0.21875 0.75 0
0.1875 0.78125 0
0.21875 0.78125 0
0.21875 0.75 0
0.25 0.75 0
0.21875 0.78125 0
0.25 0.78125 0
0.1875 0.78125 0
0.21875 0.78125 0
0.1875 0.8125 0
0.21875 0.8125 0
0.21875 0.78125 0
0.25 0.78125 0
0.21875 0.8125 0
0.25 0.8125 0
0.125 0.8125 0
0.15625 0.8125 0
0.125 0.84375 0
0.15625 0.84375 0
0.15625 0.8125 0
[...]
POINT_DATA 4096
SCALARS x_dis double 1
LOOKUP_TABLE default
-2.0105e-11 -2.01051e-11 -1.33833e-10 -1.33833e-10 -2.01051e-11 -2.01053e-11 -1.33833e-10 -1.33833e-10 -1.33833e-10 -1.33833e-10 8.87773e-10 8.87774e-10 -1.33833e-10 -1.33833e-10 8.87774e-10 8.87776e-10 -2.01053e-11 -2.01054e-11 -1.33833e-10 -1.33833e-10 -2.01054e-11 -2.01055e-11 -1.33833e-10 -1.33833e-10 -1.33833e-10 -1.33833e-10 8.87776e-10 8.87778e-10 -1.33833e-10 -1.33833e-10 8.87778e-10 8.87778e-10 8.87773e-10 8.87774e-10 -2.97538e-09 -2.97539e-09 8.87774e-10 8.87776e-10 -2.97539e-09 -2.9754e-09 -2.97538e-09 -2.97539e-09 5.06537e-09 5.06537e-09 -2.97539e-09 -2.9754e-09 5.06537e-09 5.06537e-09 8.87776e-10 8.87778e-10 -2.9754e-09 -2.97541e-09 8.87778e-10 8.87778e-10 -2.97541e-09 -2.97541e-09 -2.9754e-09 -2.97541e-09 5.06537e-09 5.06537e-09 -2.97541e-09 -2.97541e-09 5.06537e-09 5.06536e-09 -2.01055e-11 -2.01055e-11 -1.33833e-10 -1.33833e-10 -2.01055e-11 -2.01056e-11 -1.33833e-10 -1.33832e-10 -1.33833e-10 -1.33833e-10 8.87778e-10 8.87778e-10 -1.33833e-10 -1.33832e-10 8.87778e-10 8.87778e-10 -2.01056e-11 -2.01056e-11 -1.33832e-10 -1.33832e-10 -2.01056e-11 -2.01056e-11 -1.33832e-10 -1.33833e-10 -1.33832e-10 -1.33832e-10 8.87778e-10 8.87778e-10 -1.33832e-10 -1.33833e-10 8.87778e-10 8.87778e-10 8.87778e-10 8.87778e-10 -2.97541e-09 -2.97541e-09 8.87778e-10 8.87778e-10 -2.97541e-09 -2.97541e-09 -2.97541e-09 -2.97541e-09 5.06536e-09 5.06536e-09 -2.97541e-09 -2.97541e-09 5.06536e-09 5.06537e-09 8.87778e-10 8.87778e-10 -2.97541e-09 -2.97541e-09 8.87778e-10 8.87778e-10 -2.97541e-09 -2.97541e-09 -2.97541e-09 -2.97541e-09 5.06537e-09 5.06537e-09 -2.97541e-09 -2.97541e-09 5.06537e-09 5.06537e-09 5.06537e-09 5.06537e-09 6.5197e-09 6.51975e-09 5.06537e-09 5.06537e-09 6.51975e-09 6.51987e-09 6.5197e-09 6.51975e-09 -7.52265e-08 -7.52265e-08 6.51975e-09 6.51987e-09 -7.52265e-08 -7.52266e-08 5.06537e-09 5.06537e-09 6.51987e-09 6.52002e-09 5.06537e-09 5.06536e-09 6.52002e-09 6.52013e-09 6.51987e-09 6.52002e-09 -7.52266e-08 -7.52268e-08 6.52002e-09 6.52013e-09 -7.52268e-08 -7.52268e-08 -7.52265e-08 -7.52265e-08 2.27331e-07 2.27331e-07 -7.52265e-08 -7.52266e-08 2.27331e-07 2.27329e-07 2.27331e-07 2.27331e-07 -1.04568e-07 -1.04569e-07 2.27331e-07 2.27329e-07 -1.04569e-07 -1.04571e-07 -7.52266e-08 -7.52268e-08 2.27329e-07 2.27327e-07 -7.52268e-08 -7.52268e-08 2.27327e-07 2.27326e-07 2.27329e-07 2.27327e-07 -1.04571e-07 -1.04571e-07 2.27327e-07 2.27326e-07 -1.04571e-07 -1.0457e-07 5.06536e-09 5.06536e-09 6.52013e-09 6.52015e-09 5.06536e-09 5.06537e-09 6.52015e-09 6.52015e-09 6.52013e-09 6.52015e-09 -7.52268e-08 -7.52268e-08 6.52015e-09 6.52015e-09 -7.52268e-08 -7.52269e-08 5.06537e-09 5.06537e-09 6.52015e-09 6.52016e-09 5.06537e-09 5.06537e-09 6.52016e-09 6.52016e-09 6.52015e-09 6.52016e-09 -7.52269e-08 -7.52269e-08 6.52016e-09 6.52016e-09 -7.52269e-08 -7.52269e-08 -7.52268e-08 -7.52268e-08 2.27326e-07 2.27325e-07 -7.52268e-08 -7.52269e-08 2.27325e-07 2.27325e-07 2.27326e-07 2.27325e-07 -1.0457e-07 -1.04571e-07 2.27325e-07 2.27325e-07 -1.04571e-07 -1.04571e-07 -7.52269e-08 -7.52269e-08 2.27325e-07 2.27325e-07 -7.52269e-08 -7.52269e-08 2.27325e-07 2.27325e-07 2.27325e-07 2.27325e-07 -1.04571e-07 -1.04571e-07 2.27325e-07 2.27325e-07 -1.04571e-07 -1.0457e-07 -2.01056e-11 -2.01056e-11 -1.33833e-10 -1.33832e-10 -2.01056e-11 -2.01055e-11 -1.33832e-10 -1.33832e-10 -1.33833e-10 -1.33832e-10 8.87778e-10 8.87778e-10 -1.33832e-10 -1.33832e-10 8.87778e-10 8.87778e-10 -2.01055e-11 -2.01057e-11 -1.33832e-10 -1.3384e-10 -2.01057e-11 -2.01058e-11 -1.3384e-10 -1.33816e-10 -1.33832e-10 -1.3384e-10 8.87778e-10 8.87775e-10 -1.3384e-10 -1.33816e-10 8.87775e-10 8.87794e-10 8.87778e-10 8.87778e-10 -2.97541e-09 -2.97541e-09 8.87778e-10 8.87778e-10 -2.97541e-09 -2.97541e-09 -2.97541e-09 -2.97541e-09 5.06537e-09 5.06537e-09 -2.97541e-09 -2.97541e-09 5.06537e-09 5.06537e-09 8.87778e-10 8.87775e-10 -2.97541e-09 -2.97542e-09 8.87775e-10 8.87794e-10 -2.97542e-09 -2.97541e-09 -2.97541e-09 -2.97542e-09 5.06537e-09 5.06537e-09 -2.97542e-09 -2.97541e-09 5.06537e-09 5.06537e-09 -2.01058e-11 -2.01037e-11 -1.33816e-10 -1.33786e-10 -2.01037e-11 -2.01085e-11 -1.33786e-10 -1.34104e-10 -1.33816e-10 -1.33786e-10 8.87794e-10 8.87757e-10 -1.33786e-10 -1.34104e-10 8.87757e-10 8.87748e-10 -2.01085e-11 -2.0109e-11 -1.34104e-10 -1.34056e-10 -2.0109e-11 -2.00725e-11 -1.34056e-10 -1.2973e-10 -1.34104e-10 -1.34056e-10 8.87748e-10 8.87992e-10 -1.34056e-10 -1.2973e-10 8.87992e-10 8.86236e-10 8.87794e-10 8.87757e-10 -2.97541e-09 -2.97539e-09 8.87757e-10 8.87748e-10 -2.97539e-09 -2.97547e-09 -2.97541e-09 -2.97539e-09 5.06537e-09 5.06537e-09 -2.97539e-09 -2.97547e-09 5.06537e-09 5.0654e-09 8.87748e-10 8.87992e-10 -2.97547e-09 -2.97552e-09 8.87992e-10 8.86236e-10 -2.97552e-09 -2.97508e-09 -2.97547e-09 -2.97552e-09 5.0654e-09 5.06533e-09 -2.97552e-09 -2.97508e-09 5.06533e-09 5.0653e-09 5.06537e-09 5.06537e-09 6.52016e-09 6.52016e-09 5.06537e-09 5.06537e-09 6.52016e-09 6.52016e-09 6.52016e-09 6.52016e-09 -7.52269e-08 -7.52269e-08 6.52016e-09 6.52016e-09 -7.52269e-08 -7.52269e-08 5.06537e-09 5.06537e-09 6.52016e-09 6.52016e-09 5.06537e-09 5.06537e-09 6.52016e-09 6.52016e-09 6.52016e-09 6.52016e-09 -7.52269e-08 -7.52269e-08 6.52016e-09 6.52016e-09 -7.52269e-08 -7.52269e-08 -7.52269e-08 -7.52269e-08 2.27325e-07 2.27325e-07 -7.52269e-08 -7.52269e-08 2.27325e-07 2.27325e-07 2.27325e-07 2.27325e-07 -1.0457e-07 -1.0457e-07 2.27325e-07 2.27325e-07 -1.0457e-07 -1.0457e-07 -7.52269e-08 -7.52269e-08 2.27325e-07 2.27325e-07 -7.52269e-08 -7.52269e-08 2.27325e-07 2.27325e-07 2.27325e-07 2.27325e-07 -1.0457e-07 -1.0457e-07 2.27325e-07 2.27325e-07 -1.0457e-07 -1.0457e-07 5.06537e-09 5.06537e-09 6.52016e-09 6.52015e-09 5.06537e-09 5.0654e-09 6.52015e-09 6.52015e-09 6.52016e-09 6.52015e-09 -7.52269e-08 -7.52269e-08 6.52015e-09 6.52015e-09 -7.52269e-08 -7.52269e-08 5.0654e-09 5.06533e-09 6.52015e-09 6.52021e-09 5.06533e-09 5.0653e-09 6.52021e-09 6.52017e-09 6.52015e-09 6.52021e-09 -7.52269e-08 -7.52269e-08 6.52021e-09 6.52017e-09 -7.52269e-08 -7.52269e-08 -7.52269e-08 -7.52269e-08 2.27325e-07 2.27325e-07 -7.52269e-08 -7.52269e-08 2.27325e-07 2.27325e-07 2.27325e-07 2.27325e-07 -1.0457e-07 -1.0457e-07 2.27325e-07 2.27325e-07 -1.0457e-07 -1.0457e-07 -7.52269e-08 -7.52269e-08 2.27325e-07 2.27325e-07 -7.52269e-08 -7.52269e-08 2.27325e-07 2.27325e-07 2.27325e-07 2.27325e-07 -1.0457e-07 -1.0457e-07 2.27325e-07 2.27325e-07 -1.0457e-07 -1.0457e-07 -1.04568e-07 -1.04569e-07 -1.64472e-06 -1.64471e-06 -1.04569e-07 -1.04571e-07 -1.64471e-06 -1.64469e-06 -1.64472e-06 -1.64471e-06 4.49458e-06 4.49465e-06 -1.64471e-06 -1.64469e-06 4.49465e-06 4.49481e-06 -1.04571e-07 -1.04571e-07 -1.64469e-06 -1.64466e-06 -1.04571e-07 -1.0457e-07 -1.64466e-06 -1.64464e-06 -1.64469e-06 -1.64466e-06 4.49481e-06 4.49496e-06 -1.64466e-06 -1.64464e-06 4.49496e-06 4.49507e-06 4.49458e-06 4.49465e-06 7.15596e-06 7.15617e-06 4.49465e-06 4.49481e-06 7.15617e-06 7.15666e-06 7.15596e-06 7.15617e-06 -3.57173e-05 -3.57167e-05 7.15617e-06 7.15666e-06 -3.57167e-05 -3.57155e-05 4.49481e-06 4.49496e-06 7.15666e-06 7.15714e-06 4.49496e-06 4.49507e-06 7.15714e-06 7.15746e-06 7.15666e-06 7.15714e-06 -3.57155e-05 -3.57145e-05 7.15714e-06 7.15746e-06 -3.57145e-05 -3.57138e-05 -1.0457e-07 -1.04571e-07 -1.64464e-06 -1.64462e-06 -1.04571e-07 -1.04571e-07 -1.64462e-06 -1.64462e-06 -1.64464e-06 -1.64462e-06 4.49507e-06 4.49512e-06 -1.64462e-06 -1.64462e-06 4.49512e-06 4.49515e-06 -1.04571e-07 -1.04571e-07 -1.64462e-06 -1.64462e-06 -1.04571e-07 -1.0457e-07 -1.64462e-06 -1.64462e-06 -1.64462e-06 -1.64462e-06 4.49515e-06 4.49515e-06 -1.64462e-06 -1.64462e-06 4.49515e-06 4.49515e-06 4.49507e-06 4.49512e-06 7.15746e-06 7.15762e-06 4.49512e-06 4.49515e-06 7.15762e-06 7.15769e-06 7.15746e-06 7.15762e-06 -3.57138e-05 -3.57135e-05 7.15762e-06 7.15769e-06 -3.57135e-05 -3.57134e-05 4.49515e-06 4.49515e-06 7.15769e-06 7.1577e-06 4.49515e-06 4.49515e-06 7.1577e-06 7.1577e-06 7.15769e-06 7.1577e-06 -3.57134e-05 -3.57133e-05 7.1577e-06 7.1577e-06 -3.57133e-05 -3.57133e-05 -3.57173e-05 -3.57167e-05 -0.00012474 -0.000124738 -3.57167e-05 -3.57155e-05 -0.000124738 -0.000124735 -0.00012474 -0.000124738 -0.00023034 -0.000230335 -0.000124738 -0.000124735 -0.000230335 -0.000230332 -3.57155e-05 -3.57145e-05 -0.000124735 -0.000124734 -3.57145e-05 -3.57138e-05 -0.000124734 -0.000124733 -0.000124735 -0.000124734 -0.000230332 -0.00023033 -0.000124734 -0.000124733 -0.00023033 -0.000230328 -0.00023034 -0.000230335 -0.00034012 -0.000340112 -0.000230335 -0.000230332 -0.000340112 -0.000340109 -0.00034012 -0.000340112 -0.00045 -0.00045 -0.000340112 -0.000340109 -0.00045 -0.00045 -0.000230332 -0.00023033 -0.000340109 -0.000340107 -0.00023033 -0.000230328 -0.000340107 -0.000340107 -0.000340109 -0.000340107 -0.00045 -0.00045 -0.000340107 -0.000340107 -0.00045 -0.00045 -3.57138e-05 -3.57135e-05 -0.000124733 -0.000124732 -3.57135e-05 -3.57134e-05 -0.000124732 -0.000124732 -0.000124733 -0.000124732 -0.000230328 -0.000230328 -0.000124732 -0.000124732 -0.000230328 -0.000230328 -3.57134e-05 -3.57133e-05 -0.000124732 -0.000124732 -3.57133e-05 -3.57133e-05 -0.000124732 -0.000124732 -0.000124732 -0.000124732 -0.000230328 -0.000230327 -0.000124732 -0.000124732 -0.000230327 -0.000230327 -0.000230328 -0.000230328 -0.000340107 -0.000340106 -0.000230328 -0.000230328 -0.000340106 -0.000340106 -0.000340107 -0.000340106 -0.00045 -0.00045 -0.000340106 -0.000340106 -0.00045 -0.00045 -0.000230328 -0.000230327 -0.000340106 -0.000340106 -0.000230327 -0.000230327 -0.000340106 -0.000340106 -0.000340106 -0.000340106 -0.00045 -0.00045 -0.000340106 -0.000340106 -0.00045 -0.00045 -1.0457e-07 -1.0457e-07 -1.64462e-06 -1.64462e-06 -1.0457e-07 -1.0457e-07 -1.64462e-06 -1.64462e-06 -1.64462e-06 -1.64462e-06 4.49515e-06 4.49515e-06 -1.64462e-06 -1.64462e-06 4.49515e-06 4.49515e-06 -1.0457e-07 -1.0457e-07 -1.64462e-06 -1.64462e-06 -1.0457e-07 -1.0457e-07 -1.64462e-06 -1.64462e-06 -1.64462e-06 -1.64462e-06 4.49515e-06 4.49515e-06 -1.64462e-06 -1.64462e-06 4.49515e-06 4.49515e-06 4.49515e-06 4.49515e-06 7.1577e-06 7.1577e-06 4.49515e-06 4.49515e-06 7.1577e-06 7.1577e-06 7.1577e-06 7.1577e-06 -3.57133e-05 -3.57133e-05 7.1577e-06 7.1577e-06 -3.57133e-05 -3.57133e-05 4.49515e-06 4.49515e-06 7.1577e-06 7.1577e-06 4.49515e-06 4.49515e-06 7.1577e-06 7.1577e-06 7.1577e-06 7.1577e-06 -3.57133e-05 -3.57133e-05 7.1577e-06 7.1577e-06 -3.57133e-05 -3.57133e-05 -1.0457e-07 -1.0457e-07 -1.64462e-06 -1.64462e-06 -1.0457e-07 -1.0457e-07 -1.64462e-06 -1.64462e-06 -1.64462e-06 -1.64462e-06 4.49515e-06 4.49515e-06 -1.64462e-06 -1.64462e-06 4.49515e-06 4.49515e-06 -1.0457e-07 -1.0457e-07 -1.64462e-06 -1.64462e-06 -1.0457e-07 -1.0457e-07 -1.64462e-06 -1.64462e-06 -1.64462e-06 -1.64462e-06 4.49515e-06 4.49515e-06 -1.64462e-06 -1.64462e-06 4.49515e-06 4.49515e-06 4.49515e-06 4.49515e-06 7.1577e-06 7.1577e-06 4.49515e-06 4.49515e-06 7.1577e-06 7.1577e-06 7.1577e-06 7.1577e-06 -3.57133e-05 -3.57133e-05 7.1577e-06 7.1577e-06 -3.57133e-05 -3.57133e-05 4.49515e-06 4.49515e-06 7.1577e-06 7.1577e-06 4.49515e-06 4.49515e-06 7.1577e-06 7.1577e-06 7.1577e-06 7.1577e-06 -3.57133e-05 -3.57133e-05 7.1577e-06 7.1577e-06 -3.57133e-05 -3.57133e-05 -3.57133e-05 -3.57133e-05 -0.000124732 -0.000124732 -3.57133e-05 -3.57133e-05 -0.000124732 -0.000124732 -0.000124732 -0.000124732 -0.000230327 -0.000230327 -0.000124732 -0.000124732 -0.000230327 -0.000230327 -3.57133e-05 -3.57133e-05 -0.000124732 -0.000124732 -3.57133e-05 -3.57133e-05 -0.000124732 -0.000124732 -0.000124732 -0.000124732 -0.000230327 -0.000230327 -0.000124732 -0.000124732 -0.000230327 -0.000230327 -0.000230327 -0.000230327 -0.000340106 -0.000340106 -0.000230327 -0.000230327 -0.000340106 -0.000340106 -0.000340106 -0.000340106 -0.00045 -0.00045 -0.000340106 -0.000340106 -0.00045 -0.00045 -0.000230327 -0.000230327 -0.000340106 -0.000340106 -0.000230327 -0.000230327 -0.000340106 -0.000340106 -0.000340106 -0.000340106 -0.00045 -0.00045 -0.000340106 -0.000340106 -0.00045 -0.00045 -3.57133e-05 -3.57133e-05 -0.000124732 -0.000124732 -3.57133e-05 -3.57133e-05 -0.000124732 -0.000124732 -0.000124732 -0.000124732 -0.000230327 -0.000230327 -0.000124732 -0.000124732 -0.000230327 -0.000230327 -3.57133e-05 -3.57133e-05 -0.000124732 -0.000124732 -3.57133e-05 -3.57133e-05 -0.000124732 -0.000124732 -0.000124732 -0.000124732 -0.000230327 -0.000230327 -0.000124732 -0.000124732 -0.000230327 -0.000230327 -0.000230327 -0.000230327 -0.000340106 -0.000340106 -0.000230327 -0.000230327 -0.000340106 -0.000340106 -0.000340106 -0.000340106 -0.00045 -0.00045 -0.000340106 -0.000340106 -0.00045 -0.00045 -0.000230327 -0.000230327 -0.000340106 -0.000340106 -0.000230327 -0.000230327 -0.000340106 -0.000340106 -0.000340106 -0.000340106 -0.00045 -0.00045 -0.000340106 -0.000340106 -0.00045 -0.00045 -2.00725e-11 -6.82154e-11 -1.2973e-10 -1.09378e-10 -6.82154e-11 -3.97727e-11 -1.09378e-10 -1.09813e-10 -1.2973e-10 -1.09378e-10 8.86236e-10 8.79085e-10 -1.09378e-10 -1.09813e-10 8.79085e-10 8.77789e-10 -3.97727e-11 -3.76995e-11 -1.09813e-10 -1.1097e-10 -3.76995e-11 -4.07108e-11 -1.1097e-10 -1.11497e-10 -1.09813e-10 -1.1097e-10 8.77789e-10 8.78354e-10 -1.1097e-10 -1.11497e-10 8.78354e-10 8.78497e-10 8.86236e-10 8.79085e-10 -2.97508e-09 -2.97326e-09 8.79085e-10 8.77789e-10 -2.97326e-09 -2.97252e-09 -2.97508e-09 -2.97326e-09 5.0653e-09 5.06513e-09 -2.97326e-09 -2.97252e-09 5.06513e-09 5.06489e-09 8.77789e-10 8.78354e-10 -2.97252e-09 -2.97263e-09 8.78354e-10 8.78497e-10 -2.97263e-09 -2.97283e-09 -2.97252e-09 -2.97263e-09 5.06489e-09 5.06478e-09 -2.97263e-09 -2.97283e-09 5.06478e-09 5.06488e-09 -4.07108e-11 -4.03411e-11 -1.11497e-10 -1.1129e-10 -4.03411e-11 -4.01365e-11 -1.1129e-10 -1.11233e-10 -1.11497e-10 -1.1129e-10 8.78497e-10 8.78351e-10 -1.1129e-10 -1.11233e-10 8.78351e-10 8.7839e-10 -4.01365e-11 -4.02165e-11 -1.11233e-10 -1.11276e-10 -4.02165e-11 -4.02169e-11 -1.11276e-10 -1.11271e-10 -1.11233e-10 -1.11276e-10 8.7839e-10 8.78396e-10 -1.11276e-10 -1.11271e-10 8.78396e-10 8.78388e-10 8.78497e-10 8.78351e-10 -2.97283e-09 -2.97276e-09 8.78351e-10 8.7839e-10 -2.97276e-09 -2.97275e-09 -2.97283e-09 -2.97276e-09 5.06488e-09 5.06489e-09 -2.97276e-09 -2.97275e-09 5.06489e-09 5.06487e-09 8.7839e-10 8.78396e-10 -2.97275e-09 -2.97276e-09 8.78396e-10 8.78388e-10 -2.97276e-09 -2.97276e-09 -2.97275e-09 -2.97276e-09 5.06487e-09 5.06487e-09 -2.97276e-09 -2.97276e-09 5.06487e-09 5.06487e-09 5.0653e-09 5.06513e-09 6.52017e-09 6.52008e-09 5.06513e-09 5.06489e-09 6.52008e-09 6.52011e-09 6.52017e-09 6.52008e-09 -7.52269e-08 -7.52269e-08 6.52008e-09 6.52011e-09 -7.52269e-08 -7.52268e-08 5.06489e-09 5.06478e-09 6.52011e-09 6.5202e-09 5.06478e-09 5.06488e-09 6.5202e-09 6.52018e-09 6.52011e-09 6.5202e-09 -7.52268e-08 -7.52269e-08 6.5202e-09 6.52018e-09 -7.52269e-08 -7.52269e-08 -7.52269e-08 -7.52269e-08 2.27325e-07 2.27325e-07 -7.52269e-08 -7.52268e-08 2.27325e-07 2.27325e-07 2.27325e-07 2.27325e-07 -1.0457e-07 -1.0457e-07 2.27325e-07 2.27325e-07 -1.0457e-07 -1.0457e-07 -7.52268e-08 -7.52269e-08 2.27325e-07 2.27325e-07 -7.52269e-08 -7.52269e-08 2.27325e-07 2.27325e-07 2.27325e-07 2.27325e-07 -1.0457e-07 -1.0457e-07 2.27325e-07 2.27325e-07 -1.0457e-07 -1.0457e-07 5.06488e-09 5.06489e-09 6.52018e-09 6.52017e-09 5.06489e-09 5.06487e-09 6.52017e-09 6.52017e-09 6.52018e-09 6.52017e-09 -7.52269e-08 -7.52269e-08 6.52017e-09 6.52017e-09 -7.52269e-08 -7.52269e-08 5.06487e-09 5.06487e-09 6.52017e-09 6.52017e-09 5.06487e-09 5.06487e-09 6.52017e-09 6.52017e-09 6.52017e-09 6.52017e-09 -7.52269e-08 -7.52269e-08 6.52017e-09 6.52017e-09 -7.52269e-08 -7.52269e-08 -7.52269e-08 -7.52269e-08 2.27325e-07 2.27325e-07 -7.52269e-08 -7.52269e-08 2.27325e-07 2.27325e-07 2.27325e-07 2.27325e-07 -1.0457e-07 -1.0457e-07 2.27325e-07 2.27325e-07 -1.0457e-07 -1.0457e-07 -7.52269e-08 -7.52269e-08 2.27325e-07 2.27325e-07 -7.52269e-08 -7.52269e-08 2.27325e-07 2.27325e-07 2.27325e-07 2.27325e-07 -1.0457e-07 -1.0457e-07 2.27325e-07 2.27325e-07 -1.0457e-07 -1.04571e-07 -4.02169e-11 -4.0209e-11 -1.11271e-10 -1.11268e-10 -4.0209e-11 -4.02112e-11 -1.11268e-10 -1.11269e-10 -1.11271e-10 -1.11268e-10 8.78388e-10 8.7839e-10 -1.11268e-10 -1.11269e-10 8.7839e-10 8.78391e-10 -4.02112e-11 -4.02113e-11 -1.11269e-10 -1.11269e-10 -4.02113e-11 -4.02112e-11 -1.11269e-10 -1.11268e-10 -1.11269e-10 -1.11269e-10 8.78391e-10 8.7839e-10 -1.11269e-10 -1.11268e-10 8.7839e-10 8.7839e-10 8.78388e-10 8.7839e-10 -2.97276e-09 -2.97276e-09 8.7839e-10 8.78391e-10 -2.97276e-09 -2.97276e-09 -2.97276e-09 -2.97276e-09 5.06487e-09 5.06487e-09 -2.97276e-09 -2.97276e-09 5.06487e-09 5.06487e-09 8.78391e-10 8.7839e-10 -2.97276e-09 -2.97276e-09 8.7839e-10 8.7839e-10 -2.97276e-09 -2.97276e-09 -2.97276e-09 -2.97276e-09 5.06487e-09 5.06488e-09 -2.97276e-09 -2.97276e-09 5.06488e-09 5.06488e-09 -4.02112e-11 -4.02114e-11 -1.11268e-10 -1.11268e-10 -4.02114e-11 -4.02116e-11 -1.11268e-10 -1.11268e-10 -1.11268e-10 -1.11268e-10 8.7839e-10 8.7839e-10 -1.11268e-10 -1.11268e-10 8.7839e-10 8.78393e-10 -4.02116e-11 -4.0212e-11 -1.11268e-10 -1.11268e-10 -4.0212e-11 -4.02121e-11 -1.11268e-10 -1.11268e-10 -1.11268e-10 -1.11268e-10 8.78393e-10 8.78395e-10 -1.11268e-10 -1.11268e-10 8.78395e-10 8.78395e-10 8.7839e-10 8.7839e-10 -2.97276e-09 -2.97277e-09 8.7839e-10 8.78393e-10 -2.97277e-09 -2.97278e-09 -2.97276e-09 -2.97277e-09 5.06488e-09 5.06488e-09 -2.97277e-09 -2.97278e-09 5.06488e-09 5.06487e-09 8.78393e-10 8.78395e-10 -2.97278e-09 -2.97278e-09 8.78395e-10 8.78395e-10 -2.97278e-09 -2.97279e-09 -2.97278e-09 -2.97278e-09 5.06487e-09 5.06487e-09 -2.97278e-09 -2.97279e-09 5.06487e-09 5.06487e-09 5.06487e-09 5.06487e-09 6.52017e-09 6.52017e-09 5.06487e-09 5.06487e-09 6.52017e-09 6.52018e-09 6.52017e-09 6.52017e-09 -7.52269e-08 -7.52269e-08 6.52017e-09 6.52018e-09 -7.52269e-08 -7.52269e-08 5.06487e-09 5.06488e-09 6.52018e-09 6.52018e-09 5.06488e-09 5.06488e-09 6.52018e-09 6.5202e-09 6.52018e-09 6.52018e-09 -7.52269e-08 -7.52269e-08 6.52018e-09 6.5202e-09 -7.52269e-08 -7.52269e-08 -7.52269e-08 -7.52269e-08 2.27325e-07 2.27325e-07 -7.52269e-08 -7.52269e-08 2.27325e-07 2.27325e-07 2.27325e-07 2.27325e-07 -1.04571e-07 -1.0457e-07 2.27325e-07 2.27325e-07 -1.0457e-07 -1.0457e-07 -7.52269e-08 -7.52269e-08 2.27325e-07 2.27325e-07 -7.52269e-08 -7.52269e-08 2.27325e-07 2.27324e-07 2.27325e-07 2.27325e-07 -1.0457e-07 -1.0457e-07 2.27325e-07 2.27324e-07 -1.0457e-07 -1.04571e-07 5.06488e-09 5.06488e-09 6.5202e-09 6.52031e-09 5.06488e-09 5.06487e-09 6.52031e-09 6.52046e-09 6.5202e-09 6.52031e-09 -7.52269e-08 -7.5227e-08 6.52031e-09 6.52046e-09 -7.5227e-08 -7.52272e-08 5.06487e-09 5.06487e-09 6.52046e-09 6.52058e-09 5.06487e-09 5.06487e-09 6.52058e-09 6.52063e-09 6.52046e-09 6.52058e-09 -7.52272e-08 -7.52273e-08 6.52058e-09 6.52063e-09 -7.52273e-08 -7.52273e-08 -7.52269e-08 -7.5227e-08 2.27324e-07 2.27323e-07 -7.5227e-08 -7.52272e-08 2.27323e-07 2.27321e-07 2.27324e-07 2.27323e-07 -1.04571e-07 -1.0457e-07 2.27323e-07 2.27321e-07 -1.0457e-07 -1.0457e-07 -7.52272e-08 -7.52273e-08 2.27321e-07 2.27319e-07 -7.52273e-08 -7.52273e-08 2.27319e-07 2.27319e-07 2.27321e-07 2.27319e-07 -1.0457e-07 -1.04572e-07 2.27319e-07 2.27319e-07 -1.04572e-07 -1.04573e-07 -1.0457e-07 -1.0457e-07 -1.64462e-06 -1.64462e-06 -1.0457e-07 -1.0457e-07 -1.64462e-06 -1.64462e-06 -1.64462e-06 -1.64462e-06 4.49515e-06 4.49515e-06 -1.64462e-06 -1.64462e-06 4.49515e-06 4.49515e-06 -1.0457e-07 -1.0457e-07 -1.64462e-06 -1.64462e-06 -1.0457e-07 -1.0457e-07 -1.64462e-06 -1.64462e-06 -1.64462e-06 -1.64462e-06 4.49515e-06 4.49515e-06 -1.64462e-06 -1.64462e-06 4.49515e-06 4.49515e-06 4.49515e-06 4.49515e-06 7.1577e-06 7.1577e-06 4.49515e-06 4.49515e-06 7.1577e-06 7.1577e-06 7.1577e-06 7.1577e-06 -3.57133e-05 -3.57133e-05 7.1577e-06 7.1577e-06 -3.57133e-05 -3.57133e-05 4.49515e-06 4.49515e-06 7.1577e-06 7.1577e-06 4.49515e-06 4.49515e-06 7.1577e-06 7.1577e-06 7.1577e-06 7.1577e-06 -3.57133e-05 -3.57133e-05 7.1577e-06 7.1577e-06 -3.57133e-05 -3.57133e-05 -1.0457e-07 -1.0457e-07 -1.64462e-06 -1.64462e-06 -1.0457e-07 -1.0457e-07 -1.64462e-06 -1.64462e-06 -1.64462e-06 -1.64462e-06 4.49515e-06 4.4951