# vtk DataFile Version 3.0
#This file was generated by the deal.II library on 2022/11/16 at 22:50:24
ASCII
DATASET UNSTRUCTURED_GRID

POINTS 4096 double
0 0.5 0
0.03125 0.5 0
0 0.53125 0
0.03125 0.53125 0
0.03125 0.5 0
0.0625 0.5 0
0.03125 0.53125 0
0.0625 0.53125 0
0 0.53125 0
0.03125 0.53125 0
0 0.5625 0
0.03125 0.5625 0
0.03125 0.53125 0
0.0625 0.53125 0
0.03125 0.5625 0
0.0625 0.5625 0
0.0625 0.5 0
0.09375 0.5 0
0.0625 0.53125 0
0.09375 0.53125 0
0.09375 0.5 0
0.125 0.5 0
0.09375 0.53125 0
0.125 0.53125 0
0.0625 0.53125 0
0.09375 0.53125 0
0.0625 0.5625 0
0.09375 0.5625 0
0.09375 0.53125 0
0.125 0.53125 0
0.09375 0.5625 0
0.125 0.5625 0
0 0.5625 0
0.03125 0.5625 0
0 0.59375 0
0.03125 0.59375 0
0.03125 0.5625 0
0.0625 0.5625 0
0.03125 0.59375 0
0.0625 0.59375 0
0 0.59375 0
0.03125 0.59375 0
0 0.625 0
0.03125 0.625 0
0.03125 0.59375 0
0.0625 0.59375 0
0.03125 0.625 0
0.0625 0.625 0
0.0625 0.5625 0
0.09375 0.5625 0
0.0625 0.59375 0
0.09375 0.59375 0
0.09375 0.5625 0
0.125 0.5625 0
0.09375 0.59375 0
0.125 0.59375 0
0.0625 0.59375 0
0.09375 0.59375 0
0.0625 0.625 0
0.09375 0.625 0
0.09375 0.59375 0
0.125 0.59375 0
0.09375 0.625 0
0.125 0.625 0
0.125 0.5 0
0.15625 0.5 0
0.125 0.53125 0
0.15625 0.53125 0
0.15625 0.5 0
0.1875 0.5 0
0.15625 0.53125 0
0.1875 0.53125 0
0.125 0.53125 0
0.15625 0.53125 0
0.125 0.5625 0
0.15625 0.5625 0
0.15625 0.53125 0
0.1875 0.53125 0
0.15625 0.5625 0
0.1875 0.5625 0
0.1875 0.5 0
0.21875 0.5 0
0.1875 0.53125 0
0.21875 0.53125 0
0.21875 0.5 0
0.25 0.5 0
0.21875 0.53125 0
0.25 0.53125 0
0.1875 0.53125 0
0.21875 0.53125 0
0.1875 0.5625 0
0.21875 0.5625 0
0.21875 0.53125 0
0.25 0.53125 0
0.21875 0.5625 0
0.25 0.5625 0
0.125 0.5625 0
0.15625 0.5625 0
0.125 0.59375 0
0.15625 0.59375 0
0.15625 0.5625 0
0.1875 0.5625 0
0.15625 0.59375 0
0.1875 0.59375 0
0.125 0.59375 0
0.15625 0.59375 0
0.125 0.625 0
0.15625 0.625 0
0.15625 0.59375 0
0.1875 0.59375 0
0.15625 0.625 0
0.1875 0.625 0
0.1875 0.5625 0
0.21875 0.5625 0
0.1875 0.59375 0
0.21875 0.59375 0
0.21875 0.5625 0
0.25 0.5625 0
0.21875 0.59375 0
0.25 0.59375 0
0.1875 0.59375 0
0.21875 0.59375 0
0.1875 0.625 0
0.21875 0.625 0
0.21875 0.59375 0
0.25 0.59375 0
0.21875 0.625 0
0.25 0.625 0
0 0.625 0
0.03125 0.625 0
0 0.65625 0
0.03125 0.65625 0
0.03125 0.625 0
0.0625 0.625 0
0.03125 0.65625 0
0.0625 0.65625 0
0 0.65625 0
0.03125 0.65625 0
0 0.6875 0
0.03125 0.6875 0
0.03125 0.65625 0
0.0625 0.65625 0
0.03125 0.6875 0
0.0625 0.6875 0
0.0625 0.625 0
0.09375 0.625 0
0.0625 0.65625 0
0.09375 0.65625 0
0.09375 0.625 0
0.125 0.625 0
0.09375 0.65625 0
0.125 0.65625 0
0.0625 0.65625 0
0.09375 0.65625 0
0.0625 0.6875 0
0.09375 0.6875 0
0.09375 0.65625 0
0.125 0.65625 0
0.09375 0.6875 0
0.125 0.6875 0
0 0.6875 0
0.03125 0.6875 0
0 0.71875 0
0.03125 0.71875 0
0.03125 0.6875 0
0.0625 0.6875 0
0.03125 0.71875 0
0.0625 0.71875 0
0 0.71875 0
0.03125 0.71875 0
0 0.75 0
0.03125 0.75 0
0.03125 0.71875 0
0.0625 0.71875 0
0.03125 0.75 0
0.0625 0.75 0
0.0625 0.6875 0
0.09375 0.6875 0
0.0625 0.71875 0
0.09375 0.71875 0
0.09375 0.6875 0
0.125 0.6875 0
0.09375 0.71875 0
0.125 0.71875 0
0.0625 0.71875 0
0.09375 0.71875 0
0.0625 0.75 0
0.09375 0.75 0
0.09375 0.71875 0
0.125 0.71875 0
0.09375 0.75 0
0.125 0.75 0
0.125 0.625 0
0.15625 0.625 0
0.125 0.65625 0
0.15625 0.65625 0
0.15625 0.625 0
0.1875 0.625 0
0.15625 0.65625 0
0.1875 0.65625 0
0.125 0.65625 0
0.15625 0.65625 0
0.125 0.6875 0
0.15625 0.6875 0
0.15625 0.65625 0
0.1875 0.65625 0
0.15625 0.6875 0
0.1875 0.6875 0
0.1875 0.625 0
0.21875 0.625 0
0.1875 0.65625 0
0.21875 0.65625 0
0.21875 0.625 0
0.25 0.625 0
0.21875 0.65625 0
0.25 0.65625 0
0.1875 0.65625 0
0.21875 0.65625 0
0.1875 0.6875 0
0.21875 0.6875 0
0.21875 0.65625 0
0.25 0.65625 0
0.21875 0.6875 0
0.25 0.6875 0
0.125 0.6875 0
0.15625 0.6875 0
0.125 0.71875 0
0.15625 0.71875 0
0.15625 0.6875 0
0.1875 0.6875 0
0.15625 0.71875 0
0.1875 0.71875 0
0.125 0.71875 0
0.15625 0.71875 0
0.125 0.75 0
0.15625 0.75 0
0.15625 0.71875 0
0.1875 0.71875 0
0.15625 0.75 0
0.1875 0.75 0
0.1875 0.6875 0
0.21875 0.6875 0
0.1875 0.71875 0
0.21875 0.71875 0
0.21875 0.6875 0
0.25 0.6875 0
0.21875 0.71875 0
0.25 0.71875 0
0.1875 0.71875 0
0.21875 0.71875 0
0.1875 0.75 0
0.21875 0.75 0
0.21875 0.71875 0
0.25 0.71875 0
0.21875 0.75 0
0.25 0.75 0
0.25 0.5 0
0.28125 0.5 0
0.25 0.53125 0
0.28125 0.53125 0
0.28125 0.5 0
0.3125 0.5 0
0.28125 0.53125 0
0.3125 0.53125 0
0.25 0.53125 0
0.28125 0.53125 0
0.25 0.5625 0
0.28125 0.5625 0
0.28125 0.53125 0
0.3125 0.53125 0
0.28125 0.5625 0
0.3125 0.5625 0
0.3125 0.5 0
0.34375 0.5 0
0.3125 0.53125 0
0.34375 0.53125 0
0.34375 0.5 0
0.375 0.5 0
0.34375 0.53125 0
0.375 0.53125 0
0.3125 0.53125 0
0.34375 0.53125 0
0.3125 0.5625 0
0.34375 0.5625 0
0.34375 0.53125 0
0.375 0.53125 0
0.34375 0.5625 0
0.375 0.5625 0
0.25 0.5625 0
0.28125 0.5625 0
0.25 0.59375 0
0.28125 0.59375 0
0.28125 0.5625 0
0.3125 0.5625 0
0.28125 0.59375 0
0.3125 0.59375 0
0.25 0.59375 0
0.28125 0.59375 0
0.25 0.625 0
0.28125 0.625 0
0.28125 0.59375 0
0.3125 0.59375 0
0.28125 0.625 0
0.3125 0.625 0
0.3125 0.5625 0
0.34375 0.5625 0
0.3125 0.59375 0
0.34375 0.59375 0
0.34375 0.5625 0
0.375 0.5625 0
0.34375 0.59375 0
0.375 0.59375 0
0.3125 0.59375 0
0.34375 0.59375 0
0.3125 0.625 0
0.34375 0.625 0
0.34375 0.59375 0
0.375 0.59375 0
0.34375 0.625 0
0.375 0.625 0
0.375 0.5 0
0.40625 0.5 0
0.375 0.53125 0
0.40625 0.53125 0
0.40625 0.5 0
0.4375 0.5 0
0.40625 0.53125 0
0.4375 0.53125 0
0.375 0.53125 0
0.40625 0.53125 0
0.375 0.5625 0
0.40625 0.5625 0
0.40625 0.53125 0
0.4375 0.53125 0
0.40625 0.5625 0
0.4375 0.5625 0
0.4375 0.5 0
0.46875 0.5 0
0.4375 0.53125 0
0.46875 0.53125 0
0.46875 0.5 0
0.5 0.5 0
0.46875 0.53125 0
0.5 0.53125 0
0.4375 0.53125 0
0.46875 0.53125 0
0.4375 0.5625 0
0.46875 0.5625 0
0.46875 0.53125 0
0.5 0.53125 0
0.46875 0.5625 0
0.5 0.5625 0
0.375 0.5625 0
0.40625 0.5625 0
0.375 0.59375 0
0.40625 0.59375 0
0.40625 0.5625 0
0.4375 0.5625 0
0.40625 0.59375 0
0.4375 0.59375 0
0.375 0.59375 0
0.40625 0.59375 0
0.375 0.625 0
0.40625 0.625 0
0.40625 0.59375 0
0.4375 0.59375 0
0.40625 0.625 0
0.4375 0.625 0
0.4375 0.5625 0
0.46875 0.5625 0
0.4375 0.59375 0
0.46875 0.59375 0
0.46875 0.5625 0
0.5 0.5625 0
0.46875 0.59375 0
0.5 0.59375 0
0.4375 0.59375 0
0.46875 0.59375 0
0.4375 0.625 0
0.46875 0.625 0
0.46875 0.59375 0
0.5 0.59375 0
0.46875 0.625 0
0.5 0.625 0
0.25 0.625 0
0.28125 0.625 0
0.25 0.65625 0
0.28125 0.65625 0
0.28125 0.625 0
0.3125 0.625 0
0.28125 0.65625 0
0.3125 0.65625 0
0.25 0.65625 0
0.28125 0.65625 0
0.25 0.6875 0
0.28125 0.6875 0
0.28125 0.65625 0
0.3125 0.65625 0
0.28125 0.6875 0
0.3125 0.6875 0
0.3125 0.625 0
0.34375 0.625 0
0.3125 0.65625 0
0.34375 0.65625 0
0.34375 0.625 0
0.375 0.625 0
0.34375 0.65625 0
0.375 0.65625 0
0.3125 0.65625 0
0.34375 0.65625 0
0.3125 0.6875 0
0.34375 0.6875 0
0.34375 0.65625 0
0.375 0.65625 0
0.34375 0.6875 0
0.375 0.6875 0
0.25 0.6875 0
0.28125 0.6875 0
0.25 0.71875 0
0.28125 0.71875 0
0.28125 0.6875 0
0.3125 0.6875 0
0.28125 0.71875 0
0.3125 0.71875 0
0.25 0.71875 0
0.28125 0.71875 0
0.25 0.75 0
0.28125 0.75 0
0.28125 0.71875 0
0.3125 0.71875 0
0.28125 0.75 0
0.3125 0.75 0
0.3125 0.6875 0
0.34375 0.6875 0
0.3125 0.71875 0
0.34375 0.71875 0
0.34375 0.6875 0
0.375 0.6875 0
0.34375 0.71875 0
0.375 0.71875 0
0.3125 0.71875 0
0.34375 0.71875 0
0.3125 0.75 0
0.34375 0.75 0
0.34375 0.71875 0
0.375 0.71875 0
0.34375 0.75 0
0.375 0.75 0
0.375 0.625 0
0.40625 0.625 0
0.375 0.65625 0
0.40625 0.65625 0
0.40625 0.625 0
0.4375 0.625 0
0.40625 0.65625 0
0.4375 0.65625 0
0.375 0.65625 0
0.40625 0.65625 0
0.375 0.6875 0
0.40625 0.6875 0
0.40625 0.65625 0
0.4375 0.65625 0
0.40625 0.6875 0
0.4375 0.6875 0
0.4375 0.625 0
0.46875 0.625 0
0.4375 0.65625 0
0.46875 0.65625 0
0.46875 0.625 0
0.5 0.625 0
0.46875 0.65625 0
0.5 0.65625 0
0.4375 0.65625 0
0.46875 0.65625 0
0.4375 0.6875 0
0.46875 0.6875 0
0.46875 0.65625 0
0.5 0.65625 0
0.46875 0.6875 0
0.5 0.6875 0
0.375 0.6875 0
0.40625 0.6875 0
0.375 0.71875 0
0.40625 0.71875 0
0.40625 0.6875 0
0.4375 0.6875 0
0.40625 0.71875 0
0.4375 0.71875 0
0.375 0.71875 0
0.40625 0.71875 0
0.375 0.75 0
0.40625 0.75 0
0.40625 0.71875 0
0.4375 0.71875 0
0.40625 0.75 0
0.4375 0.75 0
0.4375 0.6875 0
0.46875 0.6875 0
0.4375 0.71875 0
0.46875 0.71875 0
0.46875 0.6875 0
0.5 0.6875 0
0.46875 0.71875 0
0.5 0.71875 0
0.4375 0.71875 0
0.46875 0.71875 0
0.4375 0.75 0
0.46875 0.75 0
0.46875 0.71875 0
0.5 0.71875 0
0.46875 0.75 0
0.5 0.75 0
0 0.75 0
0.03125 0.75 0
0 0.78125 0
0.03125 0.78125 0
0.03125 0.75 0
0.0625 0.75 0
0.03125 0.78125 0
0.0625 0.78125 0
0 0.78125 0
0.03125 0.78125 0
0 0.8125 0
0.03125 0.8125 0
0.03125 0.78125 0
0.0625 0.78125 0
0.03125 0.8125 0
0.0625 0.8125 0
0.0625 0.75 0
0.09375 0.75 0
0.0625 0.78125 0
0.09375 0.78125 0
0.09375 0.75 0
0.125 0.75 0
0.09375 0.78125 0
0.125 0.78125 0
0.0625 0.78125 0
0.09375 0.78125 0
0.0625 0.8125 0
0.09375 0.8125 0
0.09375 0.78125 0
0.125 0.78125 0
0.09375 0.8125 0
0.125 0.8125 0
0 0.8125 0
0.03125 0.8125 0
0 0.84375 0
0.03125 0.84375 0
0.03125 0.8125 0
0.0625 0.8125 0
0.03125 0.84375 0
0.0625 0.84375 0
0 0.84375 0
0.03125 0.84375 0
0 0.875 0
0.03125 0.875 0
0.03125 0.84375 0
0.0625 0.84375 0
0.03125 0.875 0
0.0625 0.875 0
0.0625 0.8125 0
0.09375 0.8125 0
0.0625 0.84375 0
0.09375 0.84375 0
0.09375 0.8125 0
0.125 0.8125 0
0.09375 0.84375 0
0.125 0.84375 0
0.0625 0.84375 0
0.09375 0.84375 0
0.0625 0.875 0
0.09375 0.875 0
0.09375 0.84375 0
0.125 0.84375 0
0.09375 0.875 0
0.125 0.875 0
0.125 0.75 0
0.15625 0.75 0
0.125 0.78125 0
0.15625 0.78125 0
0.15625 0.75 0
0.1875 0.75 0
0.15625 0.78125 0
0.1875 0.78125 0
0.125 0.78125 0
0.15625 0.78125 0
0.125 0.8125 0
0.15625 0.8125 0
0.15625 0.78125 0
0.1875 0.78125 0
0.15625 0.8125 0
0.1875 0.8125 0
0.1875 0.75 0
0.21875 0.75 0
0.1875 0.78125 0
0.21875 0.78125 0
0.21875 0.75 0
0.25 0.75 0
0.21875 0.78125 0
0.25 0.78125 0
0.1875 0.78125 0
0.21875 0.78125 0
0.1875 0.8125 0
0.21875 0.8125 0
0.21875 0.78125 0
0.25 0.78125 0
0.21875 0.8125 0
0.25 0.8125 0
0.125 0.8125 0
0.15625 0.8125 0
0.125 0.84375 0
0.15625 0.84375 0
0.15625 0.8125 0
[...]
POINT_DATA 4096
SCALARS x_dis double 1
LOOKUP_TABLE default
-0.000800872 -0.000800737 -0.000910866 -0.000910755 -0.000800737 -0.000800632 -0.000910755 -0.000910735 -0.000910866 -0.000910755 -0.00102085 -0.00102076 -0.000910755 -0.000910735 -0.00102076 -0.00102081 -0.000800632 -0.000800557 -0.000910735 -0.000910827 -0.000800557 -0.000800513 -0.000910827 -0.00091108 -0.000910735 -0.000910827 -0.00102081 -0.00102105 -0.000910827 -0.00091108 -0.00102105 -0.00102155 -0.00102085 -0.00102076 -0.00113082 -0.00113074 -0.00102076 -0.00102081 -0.00113074 -0.00113085 -0.00113082 -0.00113074 -0.00124077 -0.0012407 -0.00113074 -0.00113085 -0.0012407 -0.00124083 -0.00102081 -0.00102105 -0.00113085 -0.00113118 -0.00102105 -0.00102155 -0.00113118 -0.00113185 -0.00113085 -0.00113118 -0.00124083 -0.00124121 -0.00113118 -0.00113185 -0.00124121 -0.00124196 -0.000800513 -0.000800499 -0.00091108 -0.00091158 -0.000800499 -0.00080051 -0.00091158 -0.000912456 -0.00091108 -0.00091158 -0.00102155 -0.00102248 -0.00091158 -0.000912456 -0.00102248 -0.00102407 -0.00080051 -0.000800535 -0.000912456 -0.000913857 -0.000800535 -0.000800561 -0.000913857 -0.000915945 -0.000912456 -0.000913857 -0.00102407 -0.0010266 -0.000913857 -0.000915945 -0.0010266 -0.00103037 -0.00102155 -0.00102248 -0.00113185 -0.00113306 -0.00102248 -0.00102407 -0.00113306 -0.0011351 -0.00113185 -0.00113306 -0.00124196 -0.00124328 -0.00113306 -0.0011351 -0.00124328 -0.00124547 -0.00102407 -0.0010266 -0.0011351 -0.00113833 -0.0010266 -0.00103037 -0.00113833 -0.00114314 -0.0011351 -0.00113833 -0.00124547 -0.00124891 -0.00113833 -0.00114314 -0.00124891 -0.001254 -0.00124077 -0.0012407 -0.00135071 -0.00135064 -0.0012407 -0.00124083 -0.00135064 -0.00135076 -0.00135071 -0.00135064 -0.00146066 -0.00146058 -0.00135064 -0.00135076 -0.00146058 -0.00146066 -0.00124083 -0.00124121 -0.00135076 -0.00135113 -0.00124121 -0.00124196 -0.00135113 -0.00135188 -0.00135076 -0.00135113 -0.00146066 -0.00146099 -0.00135113 -0.00135188 -0.00146099 -0.00146165 -0.00146066 -0.00146058 -0.00157063 -0.00157053 -0.00146058 -0.00146066 -0.00157053 -0.00157056 -0.00157063 -0.00157053 -0.00168062 -0.0016805 -0.00157053 -0.00157056 -0.0016805 -0.00168047 -0.00146066 -0.00146099 -0.00157056 -0.0015708 -0.00146099 -0.00146165 -0.0015708 -0.00157133 -0.00157056 -0.0015708 -0.00168047 -0.0016806 -0.0015708 -0.00157133 -0.0016806 -0.00168098 -0.00124196 -0.00124328 -0.00135188 -0.00135316 -0.00124328 -0.00124547 -0.00135316 -0.00135525 -0.00135188 -0.00135316 -0.00146165 -0.00146279 -0.00135316 -0.00135525 -0.00146279 -0.00146462 -0.00124547 -0.00124891 -0.00135525 -0.00135849 -0.00124891 -0.001254 -0.00135849 -0.00136322 -0.00135525 -0.00135849 -0.00146462 -0.00146739 -0.00135849 -0.00136322 -0.00146739 -0.00147135 -0.00146165 -0.00146279 -0.00157133 -0.00157227 -0.00146279 -0.00146462 -0.00157227 -0.00157377 -0.00157133 -0.00157227 -0.00168098 -0.00168169 -0.00157227 -0.00157377 -0.00168169 -0.00168284 -0.00146462 -0.00146739 -0.00157377 -0.00157598 -0.00146739 -0.00147135 -0.00157598 -0.00157905 -0.00157377 -0.00157598 -0.00168284 -0.00168452 -0.00157598 -0.00157905 -0.00168452 -0.00168678 -0.000800561 -0.000800573 -0.000915945 -0.000918915 -0.000800573 -0.000800564 -0.000918915 -0.000923042 -0.000915945 -0.000918915 -0.00103037 -0.00103574 -0.000918915 -0.000923042 -0.00103574 -0.00104315 -0.000800564 -0.000800528 -0.000923042 -0.000928775 -0.000800528 -0.00080046 -0.000928775 -0.000936904 -0.000923042 -0.000928775 -0.00104315 -0.00105328 -0.000928775 -0.000936904 -0.00105328 -0.0010672 -0.00103037 -0.00103574 -0.00114314 -0.00114993 -0.00103574 -0.00104315 -0.00114993 -0.00115919 -0.00114314 -0.00114993 -0.001254 -0.00126113 -0.00114993 -0.00115919 -0.00126113 -0.00127069 -0.00104315 -0.00105328 -0.00115919 -0.00117154 -0.00105328 -0.0010672 -0.00117154 -0.00118778 -0.00115919 -0.00117154 -0.00127069 -0.00128306 -0.00117154 -0.00118778 -0.00128306 -0.0012986 -0.00080046 -0.000800334 -0.000936904 -0.000948906 -0.000800334 -0.000800075 -0.000948906 -0.00096796 -0.000936904 -0.000948906 -0.0010672 -0.00108666 -0.000948906 -0.00096796 -0.00108666 -0.00111427 -0.000800075 -0.000799301 -0.00096796 -0.00100121 -0.000799301 -0.000798145 -0.00100121 -0.0010733 -0.00096796 -0.00100121 -0.00111427 -0.00115402 -0.00100121 -0.0010733 -0.00115402 -0.00119606 -0.0010672 -0.00108666 -0.00118778 -0.0012089 -0.00108666 -0.00111427 -0.0012089 -0.00123566 -0.00118778 -0.0012089 -0.0012986 -0.00131748 -0.0012089 -0.00123566 -0.00131748 -0.00133901 -0.00111427 -0.00115402 -0.00123566 -0.00126598 -0.00115402 -0.00119606 -0.00126598 -0.00129717 -0.00123566 -0.00126598 -0.00133901 -0.00136172 -0.00126598 -0.00129717 -0.00136172 -0.00138345 -0.001254 -0.00126113 -0.00136322 -0.00136974 -0.00126113 -0.00127069 -0.00136974 -0.0013783 -0.00136322 -0.00136974 -0.00147135 -0.00147669 -0.00136974 -0.0013783 -0.00147669 -0.00148348 -0.00127069 -0.00128306 -0.0013783 -0.00138904 -0.00128306 -0.0012986 -0.00138904 -0.00140196 -0.0013783 -0.00138904 -0.00148348 -0.00149169 -0.00138904 -0.00140196 -0.00149169 -0.00150109 -0.00147135 -0.00147669 -0.00157905 -0.00158303 -0.00147669 -0.00148348 -0.00158303 -0.00158787 -0.00157905 -0.00158303 -0.00168678 -0.00168958 -0.00158303 -0.00158787 -0.00168958 -0.00169276 -0.00148348 -0.00149169 -0.00158787 -0.00159339 -0.00149169 -0.00150109 -0.00159339 -0.00159929 -0.00158787 -0.00159339 -0.00169276 -0.00169607 -0.00159339 -0.00159929 -0.00169607 -0.00169915 -0.0012986 -0.00131748 -0.00140196 -0.00141671 -0.00131748 -0.00133901 -0.00141671 -0.00143253 -0.00140196 -0.00141671 -0.00150109 -0.00151124 -0.00141671 -0.00143253 -0.00151124 -0.00152143 -0.00133901 -0.00136172 -0.00143253 -0.00144818 -0.00136172 -0.00138345 -0.00144818 -0.00146259 -0.00143253 -0.00144818 -0.00152143 -0.00153087 -0.00144818 -0.00146259 -0.00153087 -0.00153894 -0.00150109 -0.00151124 -0.00159929 -0.00160511 -0.00151124 -0.00152143 -0.00160511 -0.00161033 -0.00159929 -0.00160511 -0.00169915 -0.0017016 -0.00160511 -0.00161033 -0.0017016 -0.00170303 -0.00152143 -0.00153087 -0.00161033 -0.00161444 -0.00153087 -0.00153894 -0.00161444 -0.00161715 -0.00161033 -0.00161444 -0.00170303 -0.00170315 -0.00161444 -0.00161715 -0.00170315 -0.00170187 -0.00168062 -0.0016805 -0.00179063 -0.00179049 -0.0016805 -0.00168047 -0.00179049 -0.00179041 -0.00179063 -0.00179049 -0.00190066 -0.00190051 -0.00179049 -0.00179041 -0.00190051 -0.00190038 -0.00168047 -0.0016806 -0.00179041 -0.00179044 -0.0016806 -0.00168098 -0.00179044 -0.00179065 -0.00179041 -0.00179044 -0.00190038 -0.00190032 -0.00179044 -0.00179065 -0.00190032 -0.00190039 -0.00190066 -0.00190051 -0.0020107 -0.00201053 -0.00190051 -0.00190038 -0.00201053 -0.00201037 -0.0020107 -0.00201053 -0.00212073 -0.00212056 -0.00201053 -0.00201037 -0.00212056 -0.00212038 -0.00190038 -0.00190032 -0.00201037 -0.00201025 -0.00190032 -0.00190039 -0.00201025 -0.00201022 -0.00201037 -0.00201025 -0.00212038 -0.00212023 -0.00201025 -0.00201022 -0.00212023 -0.00212013 -0.00168098 -0.00168169 -0.00179065 -0.00179113 -0.00168169 -0.00168284 -0.00179113 -0.00179195 -0.00179065 -0.00179113 -0.00190039 -0.00190066 -0.00179113 -0.00179195 -0.00190066 -0.00190118 -0.00168284 -0.00168452 -0.00179195 -0.00179316 -0.00168452 -0.00168678 -0.00179316 -0.00179477 -0.00179195 -0.00179316 -0.00190118 -0.00190199 -0.00179316 -0.00179477 -0.00190199 -0.00190308 -0.00190039 -0.00190066 -0.00201022 -0.00201032 -0.00190066 -0.00190118 -0.00201032 -0.0020106 -0.00201022 -0.00201032 -0.00212013 -0.00212012 -0.00201032 -0.0020106 -0.00212012 -0.00212023 -0.00190118 -0.00190199 -0.0020106 -0.00201108 -0.00190199 -0.00190308 -0.00201108 -0.00201176 -0.0020106 -0.00201108 -0.00212023 -0.00212046 -0.00201108 -0.00201176 -0.00212046 -0.00212081 -0.00212073 -0.00212056 -0.00223073 -0.00223055 -0.00212056 -0.00212038 -0.00223055 -0.00223038 -0.00223073 -0.00223055 -0.00234065 -0.00234049 -0.00223055 -0.00223038 -0.00234049 -0.00234032 -0.00212038 -0.00212023 -0.00223038 -0.00223022 -0.00212023 -0.00212013 -0.00223022 -0.00223009 -0.00223038 -0.00223022 -0.00234032 -0.00234018 -0.00223022 -0.00223009 -0.00234018 -0.00234005 -0.00234065 -0.00234049 -0.00245047 -0.0024503 -0.00234049 -0.00234032 -0.0024503 -0.00245019 -0.00245047 -0.0024503 -0.00256 -0.00256 -0.0024503 -0.00245019 -0.00256 -0.00256 -0.00234032 -0.00234018 -0.00245019 -0.00245009 -0.00234018 -0.00234005 -0.00245009 -0.00245 -0.00245019 -0.00245009 -0.00256 -0.00256 -0.00245009 -0.00245 -0.00256 -0.00256 -0.00212013 -0.00212012 -0.00223009 -0.00223001 -0.00212012 -0.00212023 -0.00223001 -0.00223001 -0.00223009 -0.00223001 -0.00234005 -0.00233994 -0.00223001 -0.00223001 -0.00233994 -0.00233988 -0.00212023 -0.00212046 -0.00223001 -0.00223008 -0.00212046 -0.00212081 -0.00223008 -0.00223022 -0.00223001 -0.00223008 -0.00233988 -0.00233988 -0.00223008 -0.00223022 -0.00233988 -0.00233992 -0.00234005 -0.00233994 -0.00245 -0.00244993 -0.00233994 -0.00233988 -0.00244993 -0.00244988 -0.00245 -0.00244993 -0.00256 -0.00256 -0.00244993 -0.00244988 -0.00256 -0.00256 -0.00233988 -0.00233988 -0.00244988 -0.00244987 -0.00233988 -0.00233992 -0.00244987 -0.00244989 -0.00244988 -0.00244987 -0.00256 -0.00256 -0.00244987 -0.00244989 -0.00256 -0.00256 -0.00168678 -0.00168958 -0.00179477 -0.0017967 -0.00168958 -0.00169276 -0.0017967 -0.00179876 -0.00179477 -0.0017967 -0.00190308 -0.0019044 -0.0017967 -0.00179876 -0.0019044 -0.00190578 -0.00169276 -0.00169607 -0.00179876 -0.00180064 -0.00169607 -0.00169915 -0.00180064 -0.00180199 -0.00179876 -0.00180064 -0.00190578 -0.00190695 -0.00180064 -0.00180199 -0.00190695 -0.0019076 -0.00190308 -0.0019044 -0.00201176 -0.0020126 -0.0019044 -0.00190578 -0.0020126 -0.00201353 -0.00201176 -0.0020126 -0.00212081 -0.00212128 -0.0020126 -0.00201353 -0.00212128 -0.00212181 -0.00190578 -0.00190695 -0.00201353 -0.00201435 -0.00190695 -0.0019076 -0.00201435 -0.00201484 -0.00201353 -0.00201435 -0.00212181 -0.00212234 -0.00201435 -0.00201484 -0.00212234 -0.00212275 -0.00169915 -0.0017016 -0.00180199 -0.00180245 -0.0017016 -0.00170303 -0.00180245 -0.00180171 -0.00180199 -0.00180245 -0.0019076 -0.0019074 -0.00180245 -0.00180171 -0.0019074 -0.00190613 -0.00170303 -0.00170315 -0.00180171 -0.00179965 -0.00170315 -0.00170187 -0.00179965 -0.0017963 -0.00180171 -0.00179965 -0.00190613 -0.00190371 -0.00179965 -0.0017963 -0.00190371 -0.00190027 -0.0019076 -0.0019074 -0.00201484 -0.00201476 -0.0019074 -0.00190613 -0.00201476 -0.00201395 -0.00201484 -0.00201476 -0.00212275 -0.00212289 -0.00201476 -0.00201395 -0.00212289 -0.00212266 -0.00190613 -0.00190371 -0.00201395 -0.00201235 -0.00190371 -0.00190027 -0.00201235 -0.00201007 -0.00201395 -0.00201235 -0.00212266 -0.00212204 -0.00201235 -0.00201007 -0.00212204 -0.00212106 -0.00212081 -0.00212128 -0.00223022 -0.00223042 -0.00212128 -0.00212181 -0.00223042 -0.00223067 -0.00223022 -0.00223042 -0.00233992 -0.00234 -0.00223042 -0.00223067 -0.00234 -0.00234011 -0.00212181 -0.00212234 -0.00223067 -0.00223093 -0.00212234 -0.00212275 -0.00223093 -0.00223115 -0.00223067 -0.00223093 -0.00234011 -0.00234021 -0.00223093 -0.00223115 -0.00234021 -0.00234029 -0.00233992 -0.00234 -0.00244989 -0.00244994 -0.00234 -0.00234011 -0.00244994 -0.00245 -0.00244989 -0.00244994 -0.00256 -0.00256 -0.00244994 -0.00245 -0.00256 -0.00256 -0.00234011 -0.00234021 -0.00245 -0.00245006 -0.00234021 -0.00234029 -0.00245006 -0.00245009 -0.00245 -0.00245006 -0.00256 -0.00256 -0.00245006 -0.00245009 -0.00256 -0.00256 -0.00212275 -0.00212289 -0.00223115 -0.0022313 -0.00212289 -0.00212266 -0.0022313 -0.00223131 -0.00223115 -0.0022313 -0.00234029 -0.00234033 -0.0022313 -0.00223131 -0.00234033 -0.00234031 -0.00212266 -0.00212204 -0.00223131 -0.00223117 -0.00212204 -0.00212106 -0.00223117 -0.0022309 -0.00223131 -0.00223117 -0.00234031 -0.00234023 -0.00223117 -0.0022309 -0.00234023 -0.0023401 -0.00234029 -0.00234033 -0.00245009 -0.00245007 -0.00234033 -0.00234031 -0.00245007 -0.00245001 -0.00245009 -0.00245007 -0.00256 -0.00256 -0.00245007 -0.00245001 -0.00256 -0.00256 -0.00234031 -0.00234023 -0.00245001 -0.00244991 -0.00234023 -0.0023401 -0.00244991 -0.00244977 -0.00245001 -0.00244991 -0.00256 -0.00256 -0.00244991 -0.00244977 -0.00256 -0.00256 -0.000798145 -0.00103613 -0.0010733 -0.00113179 -0.00103613 -0.00117858 -0.00113179 -0.00121169 -0.0010733 -0.00113179 -0.00119606 -0.00123987 -0.00113179 -0.00121169 -0.00123987 -0.00128197 -0.00117858 -0.00127592 -0.00121169 -0.00128686 -0.00127592 -0.00134934 -0.00128686 -0.00135077 -0.00121169 -0.00128686 -0.00128197 -0.00132983 -0.00128686 -0.00135077 -0.00132983 -0.00137712 -0.00119606 -0.00123987 -0.00129717 -0.00132593 -0.00123987 -0.00128197 -0.00132593 -0.00135476 -0.00129717 -0.00132593 -0.00138345 -0.00140349 -0.00132593 -0.00135476 -0.00140349 -0.00142259 -0.00128197 -0.00132983 -0.00135476 -0.00138517 -0.00132983 -0.00137712 -0.00138517 -0.00141752 -0.00135476 -0.00138517 -0.00142259 -0.00144248 -0.00138517 -0.00141752 -0.00144248 -0.00146364 -0.00134934 -0.00140676 -0.00135077 -0.00140389 -0.00140676 -0.00145195 -0.00140389 -0.00144771 -0.00135077 -0.00140389 -0.00137712 -0.00142031 -0.00140389 -0.00144771 -0.00142031 -0.00145831 -0.00145195 -0.00148715 -0.00144771 -0.00148364 -0.00148715 -0.00151432 -0.00148364 -0.00151294 -0.00144771 -0.00148364 -0.00145831 -0.00149106 -0.00148364 -0.00151294 -0.00149106 -0.00151883 -0.00137712 -0.00142031 -0.00141752 -0.00144951 -0.00142031 -0.00145831 -0.00144951 -0.0014795 -0.00141752 -0.00144951 -0.00146364 -0.00148558 -0.00144951 -0.0014795 -0.00148558 -0.00150723 -0.00145831 -0.00149106 -0.0014795 -0.00150662 -0.00149106 -0.00151883 -0.00150662 -0.0015304 -0.0014795 -0.00150662 -0.00150723 -0.00152767 -0.00150662 -0.0015304 -0.00152767 -0.00154619 -0.00138345 -0.00140349 -0.00146259 -0.00147538 -0.00140349 -0.00142259 -0.00147538 -0.0014872 -0.00146259 -0.00147538 -0.00153894 -0.00154554 -0.00147538 -0.0014872 -0.00154554 -0.00155114 -0.00142259 -0.00144248 -0.0014872 -0.00149907 -0.00144248 -0.00146364 -0.00149907 -0.00151174 -0.0014872 -0.00149907 -0.00155114 -0.00155652 -0.00149907 -0.00151174 -0.00155652 -0.00156238 -0.00153894 -0.00154554 -0.00161715 -0.00161851 -0.00154554 -0.00155114 -0.00161851 -0.00161894 -0.00161715 -0.00161851 -0.00170187 -0.00169939 -0.00161851 -0.00161894 -0.00169939 -0.00169617 -0.00155114 -0.00155652 -0.00161894 -0.00161912 -0.00155652 -0.00156238 -0.00161912 -0.00161974 -0.00161894 -0.00161912 -0.00169617 -0.00169286 -0.00161912 -0.00161974 -0.00169286 -0.00169012 -0.00146364 -0.00148558 -0.00151174 -0.00152527 -0.00148558 -0.00150723 -0.00152527 -0.00153926 -0.00151174 -0.00152527 -0.00156238 -0.00156907 -0.00152527 -0.00153926 -0.00156907 -0.00157661 -0.00150723 -0.00152767 -0.00153926 -0.00155309 -0.00152767 -0.00154619 -0.00155309 -0.00156613 -0.00153926 -0.00155309 -0.00157661 -0.0015847 -0.00155309 -0.00156613 -0.0015847 -0.00159292 -0.00156238 -0.00156907 -0.00161974 -0.00162128 -0.00156907 -0.00157661 -0.00162128 -0.00162401 -0.00161974 -0.00162128 -0.00169012 -0.00168855 -0.00162128 -0.00162401 -0.00168855 -0.00168845 -0.00157661 -0.0015847 -0.00162401 -0.00162786 -0.0015847 -0.00159292 -0.00162786 -0.00163253 -0.00162401 -0.00162786 -0.00168845 -0.00168984 -0.00162786 -0.00163253 -0.00168984 -0.00169244 -0.00151432 -0.0015355 -0.00151294 -0.00153668 -0.0015355 -0.00155263 -0.00153668 -0.00155573 -0.00151294 -0.00153668 -0.00151883 -0.00154189 -0.00153668 -0.00155573 -0.00154189 -0.00156045 -0.00155263 -0.00156706 -0.00155573 -0.00157078 -0.00156706 -0.00157917 -0.00157078 -0.00158236 -0.00155573 -0.00157078 -0.00156045 -0.00157478 -0.00157078 -0.00158236 -0.00157478 -0.00158532 -0.00151883 -0.00154189 -0.0015304 -0.00155056 -0.00154189 -0.00156045 -0.00155056 -0.00156689 -0.0015304 -0.00155056 -0.00154619 -0.00156222 -0.00155056 -0.00156689 -0.00156222 -0.00157537 -0.00156045 -0.00157478 -0.00156689 -0.00157942 -0.00157478 -0.00158532 -0.00157942 -0.00158847 -0.00156689 -0.00157942 -0.00157537 -0.00158551 -0.00157942 -0.00158847 -0.00158551 -0.00159287 -0.00157917 -0.00158872 -0.00158236 -0.00159086 -0.00158872 -0.00159539 -0.00159086 -0.00159664 -0.00158236 -0.00159086 -0.00158532 -0.00159269 -0.00159086 -0.00159664 -0.00159269 -0.00159748 -0.00159539 -0.00159921 -0.00159664 -0.00159998 -0.00159921 -0.00160044 -0.00159998 -0.00160107 -0.00159664 -0.00159998 -0.00159748 -0.00160017 -0.00159998 -0.00160107 -0.00160017 -0.00160104 -0.00158532 -0.00159269 -0.00158847 -0.00159463 -0.00159269 -0.00159748 -0.00159463 -0.00159856 -0.00158847 -0.00159463 -0.00159287 -0.00159793 -0.00159463 -0.00159856 -0.00159793 -0.00160121 -0.00159748 -0.00160017 -0.00159856 -0.00160074 -0.00160017 -0.00160104 -0.00160074 -0.00160144 -0.00159856 -0.00160074 -0.00160121 -0.00160307 -0.00160074 -0.00160144 -0.00160307 -0.00160368 -0.00154619 -0.00156222 -0.00156613 -0.00157778 -0.00156222 -0.00157537 -0.00157778 -0.00158757 -0.00156613 -0.00157778 -0.00159292 -0.00160073 -0.00157778 -0.00158757 -0.00160073 -0.00160764 -0.00157537 -0.00158551 -0.00158757 -0.00159531 -0.00158551 -0.00159287 -0.00159531 -0.00160107 -0.00158757 -0.00159531 -0.00160764 -0.00161335 -0.00159531 -0.00160107 -0.00161335 -0.0016178 -0.00159292 -0.00160073 -0.00163253 -0.00163753 -0.00160073 -0.00160764 -0.00163753 -0.00164234 -0.00163253 -0.00163753 -0.00169244 -0.00169573 -0.00163753 -0.00164234 -0.00169573 -0.00169916 -0.00160764 -0.00161335 -0.00164234 -0.00164654 -0.00161335 -0.0016178 -0.00164654 -0.00164995 -0.00164234 -0.00164654 -0.00169916 -0.00170225 -0.00164654 -0.00164995 -0.00170225 -0.00170476 -0.00159287 -0.00159793 -0.00160107 -0.00160519 -0.00159793 -0.00160121 -0.00160519 -0.00160798 -0.00160107 -0.00160519 -0.0016178 -0.00162112 -0.00160519 -0.00160798 -0.00162112 -0.00162343 -0.00160121 -0.00160307 -0.00160798 -0.00160963 -0.00160307 -0.00160368 -0.00160963 -0.00161018 -0.00160798 -0.00160963 -0.00162343 -0.00162482 -0.00160963 -0.00161018 -0.00162482 -0.00162527 -0.0016178 -0.00162112 -0.00164995 -0.00165252 -0.00162112 -0.00162343 -0.00165252 -0.0016543 -0.00164995 -0.00165252 -0.00170476 -0.00170661 -0.00165252 -0.0016543 -0.00170661 -0.00170782 -0.00162343 -0.00162482 -0.0016543 -0.00165533 -0.00162482 -0.00162527 -0.00165533 -0.00165564 -0.0016543 -0.00165533 -0.00170782 -0.00170847 -0.00165533 -0.00165564 -0.00170847 -0.00170862 -0.00170187 -0.00169939 -0.0017963 -0.00179196 -0.00169939 -0.00169617 -0.00179196 -0.00178713 -0.0017963 -0.00179196 -0.00190027 -0.00189611 -0.00179196 -0.00178713 -0.00189611 -0.00189171 -0.00169617 -0.00169286 -0.00178713 -0.00178244 -0.00169286 -0.00169012 -0.00178244 -0.00177854 -0.00178713 -0.00178244 -0.00189171 -0.00188763 -0.00178244 -0.00177854 -0.00188763 -0.0018844 -0.00190027 -0.00189611 -0.00201007 -0.00200736 -0.00189611 -0.00189171 -0.00200736 -0.0020046 -0.00201007 -0.00200736 -0.00212106 -0.00211988 -0.00200736 -0.0020046 -0.00211988 -0.00211872 -0.00189171 -0.00188763 -0.0020046 -0.00200217 -0.00188763 -0.0018844 -0.00200217 -0.00200043 -0.0020046 -0.00200217 -0.00211872 -0.00211779 -0.00200217 -0.00200043 -0.00211779 -0.00211725 -0.00169012 -0.00168855 -0.00177854 -0.00177595 -0.00168855 -0.00168845 -0.00177595 -0.00177495 -0.00177854 -0.00177595 -0.0018844 -0.0018824 -0.00177595 -0.00177495 -0.0018824 -0.00188176 -0.00168845 -0.00168984 -0.00177495 -0.00177547 -0.00168984 -0.00169244 -0.00177547 -0.00177718 -0.00177495 -0.00177547 -0.00188176 -0.00188231 -0.00177547 -0.00177718 -0.00188231 -0.00188369 -0.0018844 -0.0018824 -0.00200043 -0.00199957 -0.0018824 -0.00188176 -0.00199957 -0.00199958 -0.00200043 -0.00199957 -0.00211725 -0.00211715 -0.00199957 -0.00199958 -0.00211715 -0.00211745 -0.00188176 -0.00188231 -0.00199958 -0.00200027 -0.00188231 -0.00188369 -0.00200027 -0.00200134 -0.00199958 -0.00200027 -0.00211745 -0.002118 -0.00200027 -0.00200134 -0.002118 -0.00211864 -0.00212106 -0.00211988 -0.0022309 -0.00223056 -0.00211988 -0.00211872 -0.00223056 -0.00223023 -0.0022309 -0.00223056 -0.0023401 -0.00233994 -0.00223056 -0.00223023 -0.0