# vtk DataFile Version 3.0
#This file was generated by the deal.II library on 2022/11/16 at 21:28:56
ASCII
DATASET UNSTRUCTURED_GRID

POINTS 4096 double
0 0.5 0
0.03125 0.5 0
0 0.53125 0
0.03125 0.53125 0
0.03125 0.5 0
0.0625 0.5 0
0.03125 0.53125 0
0.0625 0.53125 0
0 0.53125 0
0.03125 0.53125 0
0 0.5625 0
0.03125 0.5625 0
0.03125 0.53125 0
0.0625 0.53125 0
0.03125 0.5625 0
0.0625 0.5625 0
0.0625 0.5 0
0.09375 0.5 0
0.0625 0.53125 0
0.09375 0.53125 0
0.09375 0.5 0
0.125 0.5 0
0.09375 0.53125 0
0.125 0.53125 0
0.0625 0.53125 0
0.09375 0.53125 0
0.0625 0.5625 0
0.09375 0.5625 0
0.09375 0.53125 0
0.125 0.53125 0
0.09375 0.5625 0
0.125 0.5625 0
0 0.5625 0
0.03125 0.5625 0
0 0.59375 0
0.03125 0.59375 0
0.03125 0.5625 0
0.0625 0.5625 0
0.03125 0.59375 0
0.0625 0.59375 0
0 0.59375 0
0.03125 0.59375 0
0 0.625 0
0.03125 0.625 0
0.03125 0.59375 0
0.0625 0.59375 0
0.03125 0.625 0
0.0625 0.625 0
0.0625 0.5625 0
0.09375 0.5625 0
0.0625 0.59375 0
0.09375 0.59375 0
0.09375 0.5625 0
0.125 0.5625 0
0.09375 0.59375 0
0.125 0.59375 0
0.0625 0.59375 0
0.09375 0.59375 0
0.0625 0.625 0
0.09375 0.625 0
0.09375 0.59375 0
0.125 0.59375 0
0.09375 0.625 0
0.125 0.625 0
0.125 0.5 0
0.15625 0.5 0
0.125 0.53125 0
0.15625 0.53125 0
0.15625 0.5 0
0.1875 0.5 0
0.15625 0.53125 0
0.1875 0.53125 0
0.125 0.53125 0
0.15625 0.53125 0
0.125 0.5625 0
0.15625 0.5625 0
0.15625 0.53125 0
0.1875 0.53125 0
0.15625 0.5625 0
0.1875 0.5625 0
0.1875 0.5 0
0.21875 0.5 0
0.1875 0.53125 0
0.21875 0.53125 0
0.21875 0.5 0
0.25 0.5 0
0.21875 0.53125 0
0.25 0.53125 0
0.1875 0.53125 0
0.21875 0.53125 0
0.1875 0.5625 0
0.21875 0.5625 0
0.21875 0.53125 0
0.25 0.53125 0
0.21875 0.5625 0
0.25 0.5625 0
0.125 0.5625 0
0.15625 0.5625 0
0.125 0.59375 0
0.15625 0.59375 0
0.15625 0.5625 0
0.1875 0.5625 0
0.15625 0.59375 0
0.1875 0.59375 0
0.125 0.59375 0
0.15625 0.59375 0
0.125 0.625 0
0.15625 0.625 0
0.15625 0.59375 0
0.1875 0.59375 0
0.15625 0.625 0
0.1875 0.625 0
0.1875 0.5625 0
0.21875 0.5625 0
0.1875 0.59375 0
0.21875 0.59375 0
0.21875 0.5625 0
0.25 0.5625 0
0.21875 0.59375 0
0.25 0.59375 0
0.1875 0.59375 0
0.21875 0.59375 0
0.1875 0.625 0
0.21875 0.625 0
0.21875 0.59375 0
0.25 0.59375 0
0.21875 0.625 0
0.25 0.625 0
0 0.625 0
0.03125 0.625 0
0 0.65625 0
0.03125 0.65625 0
0.03125 0.625 0
0.0625 0.625 0
0.03125 0.65625 0
0.0625 0.65625 0
0 0.65625 0
0.03125 0.65625 0
0 0.6875 0
0.03125 0.6875 0
0.03125 0.65625 0
0.0625 0.65625 0
0.03125 0.6875 0
0.0625 0.6875 0
0.0625 0.625 0
0.09375 0.625 0
0.0625 0.65625 0
0.09375 0.65625 0
0.09375 0.625 0
0.125 0.625 0
0.09375 0.65625 0
0.125 0.65625 0
0.0625 0.65625 0
0.09375 0.65625 0
0.0625 0.6875 0
0.09375 0.6875 0
0.09375 0.65625 0
0.125 0.65625 0
0.09375 0.6875 0
0.125 0.6875 0
0 0.6875 0
0.03125 0.6875 0
0 0.71875 0
0.03125 0.71875 0
0.03125 0.6875 0
0.0625 0.6875 0
0.03125 0.71875 0
0.0625 0.71875 0
0 0.71875 0
0.03125 0.71875 0
0 0.75 0
0.03125 0.75 0
0.03125 0.71875 0
0.0625 0.71875 0
0.03125 0.75 0
0.0625 0.75 0
0.0625 0.6875 0
0.09375 0.6875 0
0.0625 0.71875 0
0.09375 0.71875 0
0.09375 0.6875 0
0.125 0.6875 0
0.09375 0.71875 0
0.125 0.71875 0
0.0625 0.71875 0
0.09375 0.71875 0
0.0625 0.75 0
0.09375 0.75 0
0.09375 0.71875 0
0.125 0.71875 0
0.09375 0.75 0
0.125 0.75 0
0.125 0.625 0
0.15625 0.625 0
0.125 0.65625 0
0.15625 0.65625 0
0.15625 0.625 0
0.1875 0.625 0
0.15625 0.65625 0
0.1875 0.65625 0
0.125 0.65625 0
0.15625 0.65625 0
0.125 0.6875 0
0.15625 0.6875 0
0.15625 0.65625 0
0.1875 0.65625 0
0.15625 0.6875 0
0.1875 0.6875 0
0.1875 0.625 0
0.21875 0.625 0
0.1875 0.65625 0
0.21875 0.65625 0
0.21875 0.625 0
0.25 0.625 0
0.21875 0.65625 0
0.25 0.65625 0
0.1875 0.65625 0
0.21875 0.65625 0
0.1875 0.6875 0
0.21875 0.6875 0
0.21875 0.65625 0
0.25 0.65625 0
0.21875 0.6875 0
0.25 0.6875 0
0.125 0.6875 0
0.15625 0.6875 0
0.125 0.71875 0
0.15625 0.71875 0
0.15625 0.6875 0
0.1875 0.6875 0
0.15625 0.71875 0
0.1875 0.71875 0
0.125 0.71875 0
0.15625 0.71875 0
0.125 0.75 0
0.15625 0.75 0
0.15625 0.71875 0
0.1875 0.71875 0
0.15625 0.75 0
0.1875 0.75 0
0.1875 0.6875 0
0.21875 0.6875 0
0.1875 0.71875 0
0.21875 0.71875 0
0.21875 0.6875 0
0.25 0.6875 0
0.21875 0.71875 0
0.25 0.71875 0
0.1875 0.71875 0
0.21875 0.71875 0
0.1875 0.75 0
0.21875 0.75 0
0.21875 0.71875 0
0.25 0.71875 0
0.21875 0.75 0
0.25 0.75 0
0.25 0.5 0
0.28125 0.5 0
0.25 0.53125 0
0.28125 0.53125 0
0.28125 0.5 0
0.3125 0.5 0
0.28125 0.53125 0
0.3125 0.53125 0
0.25 0.53125 0
0.28125 0.53125 0
0.25 0.5625 0
0.28125 0.5625 0
0.28125 0.53125 0
0.3125 0.53125 0
0.28125 0.5625 0
0.3125 0.5625 0
0.3125 0.5 0
0.34375 0.5 0
0.3125 0.53125 0
0.34375 0.53125 0
0.34375 0.5 0
0.375 0.5 0
0.34375 0.53125 0
0.375 0.53125 0
0.3125 0.53125 0
0.34375 0.53125 0
0.3125 0.5625 0
0.34375 0.5625 0
0.34375 0.53125 0
0.375 0.53125 0
0.34375 0.5625 0
0.375 0.5625 0
0.25 0.5625 0
0.28125 0.5625 0
0.25 0.59375 0
0.28125 0.59375 0
0.28125 0.5625 0
0.3125 0.5625 0
0.28125 0.59375 0
0.3125 0.59375 0
0.25 0.59375 0
0.28125 0.59375 0
0.25 0.625 0
0.28125 0.625 0
0.28125 0.59375 0
0.3125 0.59375 0
0.28125 0.625 0
0.3125 0.625 0
0.3125 0.5625 0
0.34375 0.5625 0
0.3125 0.59375 0
0.34375 0.59375 0
0.34375 0.5625 0
0.375 0.5625 0
0.34375 0.59375 0
0.375 0.59375 0
0.3125 0.59375 0
0.34375 0.59375 0
0.3125 0.625 0
0.34375 0.625 0
0.34375 0.59375 0
0.375 0.59375 0
0.34375 0.625 0
0.375 0.625 0
0.375 0.5 0
0.40625 0.5 0
0.375 0.53125 0
0.40625 0.53125 0
0.40625 0.5 0
0.4375 0.5 0
0.40625 0.53125 0
0.4375 0.53125 0
0.375 0.53125 0
0.40625 0.53125 0
0.375 0.5625 0
0.40625 0.5625 0
0.40625 0.53125 0
0.4375 0.53125 0
0.40625 0.5625 0
0.4375 0.5625 0
0.4375 0.5 0
0.46875 0.5 0
0.4375 0.53125 0
0.46875 0.53125 0
0.46875 0.5 0
0.5 0.5 0
0.46875 0.53125 0
0.5 0.53125 0
0.4375 0.53125 0
0.46875 0.53125 0
0.4375 0.5625 0
0.46875 0.5625 0
0.46875 0.53125 0
0.5 0.53125 0
0.46875 0.5625 0
0.5 0.5625 0
0.375 0.5625 0
0.40625 0.5625 0
0.375 0.59375 0
0.40625 0.59375 0
0.40625 0.5625 0
0.4375 0.5625 0
0.40625 0.59375 0
0.4375 0.59375 0
0.375 0.59375 0
0.40625 0.59375 0
0.375 0.625 0
0.40625 0.625 0
0.40625 0.59375 0
0.4375 0.59375 0
0.40625 0.625 0
0.4375 0.625 0
0.4375 0.5625 0
0.46875 0.5625 0
0.4375 0.59375 0
0.46875 0.59375 0
0.46875 0.5625 0
0.5 0.5625 0
0.46875 0.59375 0
0.5 0.59375 0
0.4375 0.59375 0
0.46875 0.59375 0
0.4375 0.625 0
0.46875 0.625 0
0.46875 0.59375 0
0.5 0.59375 0
0.46875 0.625 0
0.5 0.625 0
0.25 0.625 0
0.28125 0.625 0
0.25 0.65625 0
0.28125 0.65625 0
0.28125 0.625 0
0.3125 0.625 0
0.28125 0.65625 0
0.3125 0.65625 0
0.25 0.65625 0
0.28125 0.65625 0
0.25 0.6875 0
0.28125 0.6875 0
0.28125 0.65625 0
0.3125 0.65625 0
0.28125 0.6875 0
0.3125 0.6875 0
0.3125 0.625 0
0.34375 0.625 0
0.3125 0.65625 0
0.34375 0.65625 0
0.34375 0.625 0
0.375 0.625 0
0.34375 0.65625 0
0.375 0.65625 0
0.3125 0.65625 0
0.34375 0.65625 0
0.3125 0.6875 0
0.34375 0.6875 0
0.34375 0.65625 0
0.375 0.65625 0
0.34375 0.6875 0
0.375 0.6875 0
0.25 0.6875 0
0.28125 0.6875 0
0.25 0.71875 0
0.28125 0.71875 0
0.28125 0.6875 0
0.3125 0.6875 0
0.28125 0.71875 0
0.3125 0.71875 0
0.25 0.71875 0
0.28125 0.71875 0
0.25 0.75 0
0.28125 0.75 0
0.28125 0.71875 0
0.3125 0.71875 0
0.28125 0.75 0
0.3125 0.75 0
0.3125 0.6875 0
0.34375 0.6875 0
0.3125 0.71875 0
0.34375 0.71875 0
0.34375 0.6875 0
0.375 0.6875 0
0.34375 0.71875 0
0.375 0.71875 0
0.3125 0.71875 0
0.34375 0.71875 0
0.3125 0.75 0
0.34375 0.75 0
0.34375 0.71875 0
0.375 0.71875 0
0.34375 0.75 0
0.375 0.75 0
0.375 0.625 0
0.40625 0.625 0
0.375 0.65625 0
0.40625 0.65625 0
0.40625 0.625 0
0.4375 0.625 0
0.40625 0.65625 0
0.4375 0.65625 0
0.375 0.65625 0
0.40625 0.65625 0
0.375 0.6875 0
0.40625 0.6875 0
0.40625 0.65625 0
0.4375 0.65625 0
0.40625 0.6875 0
0.4375 0.6875 0
0.4375 0.625 0
0.46875 0.625 0
0.4375 0.65625 0
0.46875 0.65625 0
0.46875 0.625 0
0.5 0.625 0
0.46875 0.65625 0
0.5 0.65625 0
0.4375 0.65625 0
0.46875 0.65625 0
0.4375 0.6875 0
0.46875 0.6875 0
0.46875 0.65625 0
0.5 0.65625 0
0.46875 0.6875 0
0.5 0.6875 0
0.375 0.6875 0
0.40625 0.6875 0
0.375 0.71875 0
0.40625 0.71875 0
0.40625 0.6875 0
0.4375 0.6875 0
0.40625 0.71875 0
0.4375 0.71875 0
0.375 0.71875 0
0.40625 0.71875 0
0.375 0.75 0
0.40625 0.75 0
0.40625 0.71875 0
0.4375 0.71875 0
0.40625 0.75 0
0.4375 0.75 0
0.4375 0.6875 0
0.46875 0.6875 0
0.4375 0.71875 0
0.46875 0.71875 0
0.46875 0.6875 0
0.5 0.6875 0
0.46875 0.71875 0
0.5 0.71875 0
0.4375 0.71875 0
0.46875 0.71875 0
0.4375 0.75 0
0.46875 0.75 0
0.46875 0.71875 0
0.5 0.71875 0
0.46875 0.75 0
0.5 0.75 0
0 0.75 0
0.03125 0.75 0
0 0.78125 0
0.03125 0.78125 0
0.03125 0.75 0
0.0625 0.75 0
0.03125 0.78125 0
0.0625 0.78125 0
0 0.78125 0
0.03125 0.78125 0
0 0.8125 0
0.03125 0.8125 0
0.03125 0.78125 0
0.0625 0.78125 0
0.03125 0.8125 0
0.0625 0.8125 0
0.0625 0.75 0
0.09375 0.75 0
0.0625 0.78125 0
0.09375 0.78125 0
0.09375 0.75 0
0.125 0.75 0
0.09375 0.78125 0
0.125 0.78125 0
0.0625 0.78125 0
0.09375 0.78125 0
0.0625 0.8125 0
0.09375 0.8125 0
0.09375 0.78125 0
0.125 0.78125 0
0.09375 0.8125 0
0.125 0.8125 0
0 0.8125 0
0.03125 0.8125 0
0 0.84375 0
0.03125 0.84375 0
0.03125 0.8125 0
0.0625 0.8125 0
0.03125 0.84375 0
0.0625 0.84375 0
0 0.84375 0
0.03125 0.84375 0
0 0.875 0
0.03125 0.875 0
0.03125 0.84375 0
0.0625 0.84375 0
0.03125 0.875 0
0.0625 0.875 0
0.0625 0.8125 0
0.09375 0.8125 0
0.0625 0.84375 0
0.09375 0.84375 0
0.09375 0.8125 0
0.125 0.8125 0
0.09375 0.84375 0
0.125 0.84375 0
0.0625 0.84375 0
0.09375 0.84375 0
0.0625 0.875 0
0.09375 0.875 0
0.09375 0.84375 0
0.125 0.84375 0
0.09375 0.875 0
0.125 0.875 0
0.125 0.75 0
0.15625 0.75 0
0.125 0.78125 0
0.15625 0.78125 0
0.15625 0.75 0
0.1875 0.75 0
0.15625 0.78125 0
0.1875 0.78125 0
0.125 0.78125 0
0.15625 0.78125 0
0.125 0.8125 0
0.15625 0.8125 0
0.15625 0.78125 0
0.1875 0.78125 0
0.15625 0.8125 0
0.1875 0.8125 0
0.1875 0.75 0
0.21875 0.75 0
0.1875 0.78125 0
0.21875 0.78125 0
0.21875 0.75 0
0.25 0.75 0
0.21875 0.78125 0
0.25 0.78125 0
0.1875 0.78125 0
0.21875 0.78125 0
0.1875 0.8125 0
0.21875 0.8125 0
0.21875 0.78125 0
0.25 0.78125 0
0.21875 0.8125 0
0.25 0.8125 0
0.125 0.8125 0
0.15625 0.8125 0
0.125 0.84375 0
0.15625 0.84375 0
0.15625 0.8125 0
[...]
POINT_DATA 4096
SCALARS x_dis double 1
LOOKUP_TABLE default
-1.75404e-06 -1.75367e-06 -4.37554e-05 -4.37547e-05 -1.75367e-06 -1.75263e-06 -4.37547e-05 -4.37532e-05 -4.37554e-05 -4.37547e-05 -0.00011602 -0.000116019 -4.37547e-05 -4.37532e-05 -0.000116019 -0.000116016 -1.75263e-06 -1.75107e-06 -4.37532e-05 -4.37512e-05 -1.75107e-06 -1.74913e-06 -4.37512e-05 -4.37488e-05 -4.37532e-05 -4.37512e-05 -0.000116016 -0.000116014 -4.37512e-05 -4.37488e-05 -0.000116014 -0.000116011 -0.00011602 -0.000116019 -0.000209086 -0.000209083 -0.000116019 -0.000116016 -0.000209083 -0.00020908 -0.000209086 -0.000209083 -0.000312861 -0.000312857 -0.000209083 -0.00020908 -0.000312857 -0.000312853 -0.000116016 -0.000116014 -0.00020908 -0.000209076 -0.000116014 -0.000116011 -0.000209076 -0.000209073 -0.00020908 -0.000209076 -0.000312853 -0.000312848 -0.000209076 -0.000209073 -0.000312848 -0.000312843 -1.74913e-06 -1.7469e-06 -4.37488e-05 -4.3746e-05 -1.7469e-06 -1.74441e-06 -4.3746e-05 -4.37425e-05 -4.37488e-05 -4.3746e-05 -0.000116011 -0.000116007 -4.3746e-05 -4.37425e-05 -0.000116007 -0.000116003 -1.74441e-06 -1.74167e-06 -4.37425e-05 -4.37381e-05 -1.74167e-06 -1.73881e-06 -4.37381e-05 -4.37337e-05 -4.37425e-05 -4.37381e-05 -0.000116003 -0.000115997 -4.37381e-05 -4.37337e-05 -0.000115997 -0.000115991 -0.000116011 -0.000116007 -0.000209073 -0.000209068 -0.000116007 -0.000116003 -0.000209068 -0.000209063 -0.000209073 -0.000209068 -0.000312843 -0.000312838 -0.000209068 -0.000209063 -0.000312838 -0.000312833 -0.000116003 -0.000115997 -0.000209063 -0.000209056 -0.000115997 -0.000115991 -0.000209056 -0.00020905 -0.000209063 -0.000209056 -0.000312833 -0.000312825 -0.000209056 -0.00020905 -0.000312825 -0.000312817 -0.000312861 -0.000312857 -0.000420956 -0.00042095 -0.000312857 -0.000312853 -0.00042095 -0.000420944 -0.000420956 -0.00042095 -0.00053044 -0.000530432 -0.00042095 -0.000420944 -0.000530432 -0.000530425 -0.000312853 -0.000312848 -0.000420944 -0.000420938 -0.000312848 -0.000312843 -0.000420938 -0.000420932 -0.000420944 -0.000420938 -0.000530425 -0.000530418 -0.000420938 -0.000420932 -0.000530418 -0.000530411 -0.00053044 -0.000530432 -0.000640293 -0.000640284 -0.000530432 -0.000530425 -0.000640284 -0.000640276 -0.000640293 -0.000640284 -0.000750229 -0.000750218 -0.000640284 -0.000640276 -0.000750218 -0.000750208 -0.000530425 -0.000530418 -0.000640276 -0.000640267 -0.000530418 -0.000530411 -0.000640267 -0.000640259 -0.000640276 -0.000640267 -0.000750208 -0.000750198 -0.000640267 -0.000640259 -0.000750198 -0.000750188 -0.000312843 -0.000312838 -0.000420932 -0.000420926 -0.000312838 -0.000312833 -0.000420926 -0.00042092 -0.000420932 -0.000420926 -0.000530411 -0.000530404 -0.000420926 -0.00042092 -0.000530404 -0.000530398 -0.000312833 -0.000312825 -0.00042092 -0.000420913 -0.000312825 -0.000312817 -0.000420913 -0.000420905 -0.00042092 -0.000420913 -0.000530398 -0.000530391 -0.000420913 -0.000420905 -0.000530391 -0.000530383 -0.000530411 -0.000530404 -0.000640259 -0.000640251 -0.000530404 -0.000530398 -0.000640251 -0.000640244 -0.000640259 -0.000640251 -0.000750188 -0.00075018 -0.000640251 -0.000640244 -0.00075018 -0.000750172 -0.000530398 -0.000530391 -0.000640244 -0.000640237 -0.000530391 -0.000530383 -0.000640237 -0.00064023 -0.000640244 -0.000640237 -0.000750172 -0.000750165 -0.000640237 -0.00064023 -0.000750165 -0.000750158 -1.73881e-06 -1.73631e-06 -4.37337e-05 -4.37325e-05 -1.73631e-06 -1.73482e-06 -4.37325e-05 -4.37425e-05 -4.37337e-05 -4.37325e-05 -0.000115991 -0.00011599 -4.37325e-05 -4.37425e-05 -0.00011599 -0.000116003 -1.73482e-06 -1.73398e-06 -4.37425e-05 -4.37692e-05 -1.73398e-06 -1.73118e-06 -4.37692e-05 -4.37798e-05 -4.37425e-05 -4.37692e-05 -0.000116003 -0.000116039 -4.37692e-05 -4.37798e-05 -0.000116039 -0.000116069 -0.000115991 -0.00011599 -0.00020905 -0.000209047 -0.00011599 -0.000116003 -0.000209047 -0.000209057 -0.00020905 -0.000209047 -0.000312817 -0.000312813 -0.000209047 -0.000209057 -0.000312813 -0.000312818 -0.000116003 -0.000116039 -0.000209057 -0.000209084 -0.000116039 -0.000116069 -0.000209084 -0.000209115 -0.000209057 -0.000209084 -0.000312818 -0.000312835 -0.000209084 -0.000209115 -0.000312835 -0.000312854 -1.73118e-06 -1.72455e-06 -4.37798e-05 -4.36624e-05 -1.72455e-06 -1.72002e-06 -4.36624e-05 -4.32489e-05 -4.37798e-05 -4.36624e-05 -0.000116069 -0.00011599 -4.36624e-05 -4.32489e-05 -0.00011599 -0.00011567 -1.72002e-06 -1.73462e-06 -4.32489e-05 -4.24242e-05 -1.73462e-06 -1.76005e-06 -4.24242e-05 -4.13202e-05 -4.32489e-05 -4.24242e-05 -0.00011567 -0.000115074 -4.24242e-05 -4.13202e-05 -0.000115074 -0.000114096 -0.000116069 -0.00011599 -0.000209115 -0.000209106 -0.00011599 -0.00011567 -0.000209106 -0.000209051 -0.000209115 -0.000209106 -0.000312854 -0.000312856 -0.000209106 -0.000209051 -0.000312856 -0.000312853 -0.00011567 -0.000115074 -0.000209051 -0.000209027 -0.000115074 -0.000114096 -0.000209027 -0.000209238 -0.000209051 -0.000209027 -0.000312853 -0.000312941 -0.000209027 -0.000209238 -0.000312941 -0.000313204 -0.000312817 -0.000312813 -0.000420905 -0.000420898 -0.000312813 -0.000312818 -0.000420898 -0.000420896 -0.000420905 -0.000420898 -0.000530383 -0.000530374 -0.000420898 -0.000420896 -0.000530374 -0.000530367 -0.000312818 -0.000312835 -0.000420896 -0.000420906 -0.000312835 -0.000312854 -0.000420906 -0.000420923 -0.000420896 -0.000420906 -0.000530367 -0.000530366 -0.000420906 -0.000420923 -0.000530366 -0.000530376 -0.000530383 -0.000530374 -0.00064023 -0.000640222 -0.000530374 -0.000530367 -0.000640222 -0.000640214 -0.00064023 -0.000640222 -0.000750158 -0.000750152 -0.000640222 -0.000640214 -0.000750152 -0.000750144 -0.000530367 -0.000530366 -0.000640214 -0.000640206 -0.000530366 -0.000530376 -0.000640206 -0.000640201 -0.000640214 -0.000640206 -0.000750144 -0.000750137 -0.000640206 -0.000640201 -0.000750137 -0.000750127 -0.000312854 -0.000312856 -0.000420923 -0.000420929 -0.000312856 -0.000312853 -0.000420929 -0.000420907 -0.000420923 -0.000420929 -0.000530376 -0.000530393 -0.000420929 -0.000420907 -0.000530393 -0.000530395 -0.000312853 -0.000312941 -0.000420907 -0.000420862 -0.000312941 -0.000313204 -0.000420862 -0.000420814 -0.000420907 -0.000420862 -0.000530395 -0.00053036 -0.000420862 -0.000420814 -0.00053036 -0.000530278 -0.000530376 -0.000530393 -0.000640201 -0.000640206 -0.000530393 -0.000530395 -0.000640206 -0.000640217 -0.000640201 -0.000640206 -0.000750127 -0.000750119 -0.000640206 -0.000640217 -0.000750119 -0.000750113 -0.000530395 -0.00053036 -0.000640217 -0.000640225 -0.00053036 -0.000530278 -0.000640225 -0.000640224 -0.000640217 -0.000640225 -0.000750113 -0.000750114 -0.000640225 -0.000640224 -0.000750114 -0.00075012 -0.000750229 -0.000750218 -0.000860184 -0.000860172 -0.000750218 -0.000750208 -0.000860172 -0.00086016 -0.000860184 -0.000860172 -0.000970148 -0.000970133 -0.000860172 -0.00086016 -0.000970133 -0.000970119 -0.000750208 -0.000750198 -0.00086016 -0.000860149 -0.000750198 -0.000750188 -0.000860149 -0.000860138 -0.00086016 -0.000860149 -0.000970119 -0.000970107 -0.000860149 -0.000860138 -0.000970107 -0.000970096 -0.000970148 -0.000970133 -0.00108012 -0.0010801 -0.000970133 -0.000970119 -0.0010801 -0.00108009 -0.00108012 -0.0010801 -0.0011901 -0.00119008 -0.0010801 -0.00108009 -0.00119008 -0.00119006 -0.000970119 -0.000970107 -0.00108009 -0.00108007 -0.000970107 -0.000970096 -0.00108007 -0.00108006 -0.00108009 -0.00108007 -0.00119006 -0.00119005 -0.00108007 -0.00108006 -0.00119005 -0.00119003 -0.000750188 -0.00075018 -0.000860138 -0.000860129 -0.00075018 -0.000750172 -0.000860129 -0.000860121 -0.000860138 -0.000860129 -0.000970096 -0.000970086 -0.000860129 -0.000860121 -0.000970086 -0.000970078 -0.000750172 -0.000750165 -0.000860121 -0.000860114 -0.000750165 -0.000750158 -0.000860114 -0.000860107 -0.000860121 -0.000860114 -0.000970078 -0.00097007 -0.000860114 -0.000860107 -0.00097007 -0.000970064 -0.000970096 -0.000970086 -0.00108006 -0.00108005 -0.000970086 -0.000970078 -0.00108005 -0.00108004 -0.00108006 -0.00108005 -0.00119003 -0.00119002 -0.00108005 -0.00108004 -0.00119002 -0.00119002 -0.000970078 -0.00097007 -0.00108004 -0.00108004 -0.00097007 -0.000970064 -0.00108004 -0.00108003 -0.00108004 -0.00108004 -0.00119002 -0.00119001 -0.00108004 -0.00108003 -0.00119001 -0.00119 -0.0011901 -0.00119008 -0.00130008 -0.00130006 -0.00119008 -0.00119006 -0.00130006 -0.00130004 -0.00130008 -0.00130006 -0.00141007 -0.00141004 -0.00130006 -0.00130004 -0.00141004 -0.00141002 -0.00119006 -0.00119005 -0.00130004 -0.00130002 -0.00119005 -0.00119003 -0.00130002 -0.00130001 -0.00130004 -0.00130002 -0.00141002 -0.00141001 -0.00130002 -0.00130001 -0.00141001 -0.00141 -0.00141007 -0.00141004 -0.00152005 -0.00152002 -0.00141004 -0.00141002 -0.00152002 -0.00152001 -0.00152005 -0.00152002 -0.00163 -0.00163 -0.00152002 -0.00152001 -0.00163 -0.00163 -0.00141002 -0.00141001 -0.00152001 -0.00152 -0.00141001 -0.00141 -0.00152 -0.00152 -0.00152001 -0.00152 -0.00163 -0.00163 -0.00152 -0.00152 -0.00163 -0.00163 -0.00119003 -0.00119002 -0.00130001 -0.0013 -0.00119002 -0.00119002 -0.0013 -0.0013 -0.00130001 -0.0013 -0.00141 -0.00140999 -0.0013 -0.0013 -0.00140999 -0.00140999 -0.00119002 -0.00119001 -0.0013 -0.00129999 -0.00119001 -0.00119 -0.00129999 -0.00129999 -0.0013 -0.00129999 -0.00140999 -0.00140998 -0.00129999 -0.00129999 -0.00140998 -0.00140998 -0.00141 -0.00140999 -0.00152 -0.00151999 -0.00140999 -0.00140999 -0.00151999 -0.00151999 -0.00152 -0.00151999 -0.00163 -0.00163 -0.00151999 -0.00151999 -0.00163 -0.00163 -0.00140999 -0.00140998 -0.00151999 -0.00151999 -0.00140998 -0.00140998 -0.00151999 -0.00151999 -0.00151999 -0.00151999 -0.00163 -0.00163 -0.00151999 -0.00151999 -0.00163 -0.00163 -0.000750158 -0.000750152 -0.000860107 -0.000860101 -0.000750152 -0.000750144 -0.000860101 -0.000860095 -0.000860107 -0.000860101 -0.000970064 -0.000970059 -0.000860101 -0.000860095 -0.000970059 -0.000970053 -0.000750144 -0.000750137 -0.000860095 -0.000860089 -0.000750137 -0.000750127 -0.000860089 -0.000860082 -0.000860095 -0.000860089 -0.000970053 -0.000970048 -0.000860089 -0.000860082 -0.000970048 -0.000970043 -0.000970064 -0.000970059 -0.00108003 -0.00108002 -0.000970059 -0.000970053 -0.00108002 -0.00108002 -0.00108003 -0.00108002 -0.00119 -0.00119 -0.00108002 -0.00108002 -0.00119 -0.00119 -0.000970053 -0.000970048 -0.00108002 -0.00108002 -0.000970048 -0.000970043 -0.00108002 -0.00108001 -0.00108002 -0.00108002 -0.00119 -0.00118999 -0.00108002 -0.00108001 -0.00118999 -0.00118999 -0.000750127 -0.000750119 -0.000860082 -0.000860075 -0.000750119 -0.000750113 -0.000860075 -0.000860067 -0.000860082 -0.000860075 -0.000970043 -0.000970039 -0.000860075 -0.000860067 -0.000970039 -0.000970034 -0.000750113 -0.000750114 -0.000860067 -0.000860059 -0.000750114 -0.00075012 -0.000860059 -0.000860052 -0.000860067 -0.000860059 -0.000970034 -0.00097003 -0.000860059 -0.000860052 -0.00097003 -0.000970025 -0.000970043 -0.000970039 -0.00108001 -0.00108001 -0.000970039 -0.000970034 -0.00108001 -0.00108 -0.00108001 -0.00108001 -0.00118999 -0.00118999 -0.00108001 -0.00108 -0.00118999 -0.00118998 -0.000970034 -0.00097003 -0.00108 -0.00108 -0.00097003 -0.000970025 -0.00108 -0.00108 -0.00108 -0.00108 -0.00118998 -0.00118998 -0.00108 -0.00108 -0.00118998 -0.00118997 -0.00119 -0.00119 -0.00129999 -0.00129998 -0.00119 -0.00119 -0.00129998 -0.00129998 -0.00129999 -0.00129998 -0.00140998 -0.00140998 -0.00129998 -0.00129998 -0.00140998 -0.00140998 -0.00119 -0.00118999 -0.00129998 -0.00129998 -0.00118999 -0.00118999 -0.00129998 -0.00129998 -0.00129998 -0.00129998 -0.00140998 -0.00140998 -0.00129998 -0.00129998 -0.00140998 -0.00140997 -0.00140998 -0.00140998 -0.00151999 -0.00151999 -0.00140998 -0.00140998 -0.00151999 -0.00151998 -0.00151999 -0.00151999 -0.00163 -0.00163 -0.00151999 -0.00151998 -0.00163 -0.00163 -0.00140998 -0.00140998 -0.00151998 -0.00151998 -0.00140998 -0.00140997 -0.00151998 -0.00151998 -0.00151998 -0.00151998 -0.00163 -0.00163 -0.00151998 -0.00151998 -0.00163 -0.00163 -0.00118999 -0.00118999 -0.00129998 -0.00129997 -0.00118999 -0.00118998 -0.00129997 -0.00129997 -0.00129998 -0.00129997 -0.00140997 -0.00140997 -0.00129997 -0.00129997 -0.00140997 -0.00140997 -0.00118998 -0.00118998 -0.00129997 -0.00129997 -0.00118998 -0.00118997 -0.00129997 -0.00129996 -0.00129997 -0.00129997 -0.00140997 -0.00140997 -0.00129997 -0.00129996 -0.00140997 -0.00140997 -0.00140997 -0.00140997 -0.00151998 -0.00151998 -0.00140997 -0.00140997 -0.00151998 -0.00151998 -0.00151998 -0.00151998 -0.00163 -0.00163 -0.00151998 -0.00151998 -0.00163 -0.00163 -0.00140997 -0.00140997 -0.00151998 -0.00151998 -0.00140997 -0.00140997 -0.00151998 -0.00151998 -0.00151998 -0.00151998 -0.00163 -0.00163 -0.00151998 -0.00151998 -0.00163 -0.00163 -1.76005e-06 -8.39682e-06 -4.13202e-05 -3.85865e-05 -8.39682e-06 -7.26383e-06 -3.85865e-05 -3.68791e-05 -4.13202e-05 -3.85865e-05 -0.000114096 -0.000113266 -3.85865e-05 -3.68791e-05 -0.000113266 -0.000112525 -7.26383e-06 -5.04421e-06 -3.68791e-05 -3.51641e-05 -5.04421e-06 -3.71788e-06 -3.51641e-05 -3.39738e-05 -3.68791e-05 -3.51641e-05 -0.000112525 -0.000112038 -3.51641e-05 -3.39738e-05 -0.000112038 -0.000111653 -0.000114096 -0.000113266 -0.000209238 -0.000209669 -0.000113266 -0.000112525 -0.000209669 -0.000210133 -0.000209238 -0.000209669 -0.000313204 -0.000313589 -0.000209669 -0.000210133 -0.000313589 -0.000313881 -0.000112525 -0.000112038 -0.000210133 -0.000210335 -0.000112038 -0.000111653 -0.000210335 -0.000210335 -0.000210133 -0.000210335 -0.000313881 -0.000313958 -0.000210335 -0.000210335 -0.000313958 -0.000313899 -3.71788e-06 -3.18727e-06 -3.39738e-05 -3.35519e-05 -3.18727e-06 -3.11789e-06 -3.35519e-05 -3.36302e-05 -3.39738e-05 -3.35519e-05 -0.000111653 -0.000111527 -3.35519e-05 -3.36302e-05 -0.000111527 -0.000111616 -3.11789e-06 -3.26716e-06 -3.36302e-05 -3.38186e-05 -3.26716e-06 -3.41405e-06 -3.38186e-05 -3.39184e-05 -3.36302e-05 -3.38186e-05 -0.000111616 -0.000111736 -3.38186e-05 -3.39184e-05 -0.000111736 -0.00011179 -0.000111653 -0.000111527 -0.000210335 -0.000210309 -0.000111527 -0.000111616 -0.000210309 -0.000210349 -0.000210335 -0.000210309 -0.000313899 -0.000313861 -0.000210309 -0.000210349 -0.000313861 -0.000313887 -0.000111616 -0.000111736 -0.000210349 -0.00021041 -0.000111736 -0.00011179 -0.00021041 -0.000210445 -0.000210349 -0.00021041 -0.000313887 -0.000313933 -0.00021041 -0.000210445 -0.000313933 -0.000313957 -0.000313204 -0.000313589 -0.000420814 -0.000420751 -0.000313589 -0.000313881 -0.000420751 -0.000420647 -0.000420814 -0.000420751 -0.000530278 -0.000530166 -0.000420751 -0.000420647 -0.000530166 -0.000530063 -0.000313881 -0.000313958 -0.000420647 -0.000420523 -0.000313958 -0.000313899 -0.000420523 -0.000420449 -0.000420647 -0.000420523 -0.000530063 -0.000530012 -0.000420523 -0.000420449 -0.000530012 -0.000530022 -0.000530278 -0.000530166 -0.000640224 -0.000640219 -0.000530166 -0.000530063 -0.000640219 -0.000640224 -0.000640224 -0.000640219 -0.00075012 -0.00075013 -0.000640219 -0.000640224 -0.00075013 -0.00075014 -0.000530063 -0.000530012 -0.000640224 -0.000640246 -0.000530012 -0.000530022 -0.000640246 -0.000640272 -0.000640224 -0.000640246 -0.00075014 -0.000750145 -0.000640246 -0.000640272 -0.000750145 -0.000750141 -0.000313899 -0.000313861 -0.000420449 -0.000420452 -0.000313861 -0.000313887 -0.000420452 -0.000420495 -0.000420449 -0.000420452 -0.000530022 -0.00053006 -0.000420452 -0.000420495 -0.00053006 -0.000530088 -0.000313887 -0.000313933 -0.000420495 -0.000420527 -0.000313933 -0.000313957 -0.000420527 -0.000420531 -0.000420495 -0.000420527 -0.000530088 -0.000530091 -0.000420527 -0.000420531 -0.000530091 -0.00053008 -0.000530022 -0.00053006 -0.000640272 -0.000640285 -0.00053006 -0.000530088 -0.000640285 -0.00064028 -0.000640272 -0.000640285 -0.000750141 -0.00075013 -0.000640285 -0.00064028 -0.00075013 -0.000750118 -0.000530088 -0.000530091 -0.00064028 -0.000640268 -0.000530091 -0.00053008 -0.000640268 -0.000640257 -0.00064028 -0.000640268 -0.000750118 -0.000750109 -0.000640268 -0.000640257 -0.000750109 -0.000750102 -3.41405e-06 -3.45246e-06 -3.39184e-05 -3.39249e-05 -3.45246e-06 -3.42323e-06 -3.39249e-05 -3.38972e-05 -3.39184e-05 -3.39249e-05 -0.00011179 -0.00011179 -3.39249e-05 -3.38972e-05 -0.00011179 -0.000111773 -3.42323e-06 -3.39356e-06 -3.38972e-05 -3.3876e-05 -3.39356e-06 -3.38296e-06 -3.3876e-05 -3.38693e-05 -3.38972e-05 -3.3876e-05 -0.000111773 -0.00011176 -3.3876e-05 -3.38693e-05 -0.00011176 -0.000111753 -0.00011179 -0.00011179 -0.000210445 -0.000210449 -0.00011179 -0.000111773 -0.000210449 -0.000210437 -0.000210445 -0.000210449 -0.000313957 -0.000313955 -0.000210449 -0.000210437 -0.000313955 -0.000313941 -0.000111773 -0.00011176 -0.000210437 -0.000210424 -0.00011176 -0.000111753 -0.000210424 -0.000210416 -0.000210437 -0.000210424 -0.000313941 -0.000313928 -0.000210424 -0.000210416 -0.000313928 -0.000313922 -3.38296e-06 -3.38206e-06 -3.38693e-05 -3.38691e-05 -3.38206e-06 -3.38152e-06 -3.38691e-05 -3.38682e-05 -3.38693e-05 -3.38691e-05 -0.000111753 -0.000111751 -3.38691e-05 -3.38682e-05 -0.000111751 -0.000111749 -3.38152e-06 -3.3795e-06 -3.38682e-05 -3.38661e-05 -3.3795e-06 -3.37834e-06 -3.38661e-05 -3.3865e-05 -3.38682e-05 -3.38661e-05 -0.000111749 -0.000111747 -3.38661e-05 -3.3865e-05 -0.000111747 -0.000111746 -0.000111753 -0.000111751 -0.000210416 -0.000210413 -0.000111751 -0.000111749 -0.000210413 -0.000210411 -0.000210416 -0.000210413 -0.000313922 -0.000313919 -0.000210413 -0.000210411 -0.000313919 -0.000313916 -0.000111749 -0.000111747 -0.000210411 -0.000210408 -0.000111747 -0.000111746 -0.000210408 -0.000210406 -0.000210411 -0.000210408 -0.000313916 -0.000313912 -0.000210408 -0.000210406 -0.000313912 -0.000313908 -0.000313957 -0.000313955 -0.000420531 -0.00042052 -0.000313955 -0.000313941 -0.00042052 -0.000420506 -0.000420531 -0.00042052 -0.00053008 -0.000530067 -0.00042052 -0.000420506 -0.000530067 -0.000530057 -0.000313941 -0.000313928 -0.000420506 -0.000420497 -0.000313928 -0.000313922 -0.000420497 -0.000420492 -0.000420506 -0.000420497 -0.000530057 -0.00053005 -0.000420497 -0.000420492 -0.00053005 -0.000530045 -0.00053008 -0.000530067 -0.000640257 -0.000640248 -0.000530067 -0.000530057 -0.000640248 -0.00064024 -0.000640257 -0.000640248 -0.000750102 -0.000750095 -0.000640248 -0.00064024 -0.000750095 -0.000750088 -0.000530057 -0.00053005 -0.00064024 -0.000640234 -0.00053005 -0.000530045 -0.000640234 -0.000640227 -0.00064024 -0.000640234 -0.000750088 -0.000750081 -0.000640234 -0.000640227 -0.000750081 -0.000750073 -0.000313922 -0.000313919 -0.000420492 -0.000420488 -0.000313919 -0.000313916 -0.000420488 -0.000420483 -0.000420492 -0.000420488 -0.000530045 -0.000530039 -0.000420488 -0.000420483 -0.000530039 -0.000530032 -0.000313916 -0.000313912 -0.000420483 -0.000420477 -0.000313912 -0.000313908 -0.000420477 -0.000420471 -0.000420483 -0.000420477 -0.000530032 -0.000530025 -0.000420477 -0.000420471 -0.000530025 -0.000530018 -0.000530045 -0.000530039 -0.000640227 -0.000640219 -0.000530039 -0.000530032 -0.000640219 -0.000640211 -0.000640227 -0.000640219 -0.000750073 -0.000750064 -0.000640219 -0.000640211 -0.000750064 -0.000750054 -0.000530032 -0.000530025 -0.000640211 -0.000640202 -0.000530025 -0.000530018 -0.000640202 -0.000640194 -0.000640211 -0.000640202 -0.000750054 -0.000750044 -0.000640202 -0.000640194 -0.000750044 -0.000750033 -0.00075012 -0.00075013 -0.000860052 -0.000860047 -0.00075013 -0.00075014 -0.000860047 -0.00086004 -0.000860052 -0.000860047 -0.000970025 -0.000970021 -0.000860047 -0.00086004 -0.000970021 -0.000970017 -0.00075014 -0.000750145 -0.00086004 -0.000860032 -0.000750145 -0.000750141 -0.000860032 -0.000860023 -0.00086004 -0.000860032 -0.000970017 -0.000970013 -0.000860032 -0.000860023 -0.000970013 -0.000970009 -0.000970025 -0.000970021 -0.00108 -0.00107999 -0.000970021 -0.000970017 -0.00107999 -0.00107999 -0.00108 -0.00107999 -0.00118997 -0.00118997 -0.00107999 -0.00107999 -0.00118997 -0.00118997 -0.000970017 -0.000970013 -0.00107999 -0.00107999 -0.000970013 -0.000970009 -0.001