# vtk DataFile Version 3.0
#This file was generated by the deal.II library on 2022/11/16 at 21:17:07
ASCII
DATASET UNSTRUCTURED_GRID

POINTS 4096 double
0 0.5 0
0.03125 0.5 0
0 0.53125 0
0.03125 0.53125 0
0.03125 0.5 0
0.0625 0.5 0
0.03125 0.53125 0
0.0625 0.53125 0
0 0.53125 0
0.03125 0.53125 0
0 0.5625 0
0.03125 0.5625 0
0.03125 0.53125 0
0.0625 0.53125 0
0.03125 0.5625 0
0.0625 0.5625 0
0.0625 0.5 0
0.09375 0.5 0
0.0625 0.53125 0
0.09375 0.53125 0
0.09375 0.5 0
0.125 0.5 0
0.09375 0.53125 0
0.125 0.53125 0
0.0625 0.53125 0
0.09375 0.53125 0
0.0625 0.5625 0
0.09375 0.5625 0
0.09375 0.53125 0
0.125 0.53125 0
0.09375 0.5625 0
0.125 0.5625 0
0 0.5625 0
0.03125 0.5625 0
0 0.59375 0
0.03125 0.59375 0
0.03125 0.5625 0
0.0625 0.5625 0
0.03125 0.59375 0
0.0625 0.59375 0
0 0.59375 0
0.03125 0.59375 0
0 0.625 0
0.03125 0.625 0
0.03125 0.59375 0
0.0625 0.59375 0
0.03125 0.625 0
0.0625 0.625 0
0.0625 0.5625 0
0.09375 0.5625 0
0.0625 0.59375 0
0.09375 0.59375 0
0.09375 0.5625 0
0.125 0.5625 0
0.09375 0.59375 0
0.125 0.59375 0
0.0625 0.59375 0
0.09375 0.59375 0
0.0625 0.625 0
0.09375 0.625 0
0.09375 0.59375 0
0.125 0.59375 0
0.09375 0.625 0
0.125 0.625 0
0.125 0.5 0
0.15625 0.5 0
0.125 0.53125 0
0.15625 0.53125 0
0.15625 0.5 0
0.1875 0.5 0
0.15625 0.53125 0
0.1875 0.53125 0
0.125 0.53125 0
0.15625 0.53125 0
0.125 0.5625 0
0.15625 0.5625 0
0.15625 0.53125 0
0.1875 0.53125 0
0.15625 0.5625 0
0.1875 0.5625 0
0.1875 0.5 0
0.21875 0.5 0
0.1875 0.53125 0
0.21875 0.53125 0
0.21875 0.5 0
0.25 0.5 0
0.21875 0.53125 0
0.25 0.53125 0
0.1875 0.53125 0
0.21875 0.53125 0
0.1875 0.5625 0
0.21875 0.5625 0
0.21875 0.53125 0
0.25 0.53125 0
0.21875 0.5625 0
0.25 0.5625 0
0.125 0.5625 0
0.15625 0.5625 0
0.125 0.59375 0
0.15625 0.59375 0
0.15625 0.5625 0
0.1875 0.5625 0
0.15625 0.59375 0
0.1875 0.59375 0
0.125 0.59375 0
0.15625 0.59375 0
0.125 0.625 0
0.15625 0.625 0
0.15625 0.59375 0
0.1875 0.59375 0
0.15625 0.625 0
0.1875 0.625 0
0.1875 0.5625 0
0.21875 0.5625 0
0.1875 0.59375 0
0.21875 0.59375 0
0.21875 0.5625 0
0.25 0.5625 0
0.21875 0.59375 0
0.25 0.59375 0
0.1875 0.59375 0
0.21875 0.59375 0
0.1875 0.625 0
0.21875 0.625 0
0.21875 0.59375 0
0.25 0.59375 0
0.21875 0.625 0
0.25 0.625 0
0 0.625 0
0.03125 0.625 0
0 0.65625 0
0.03125 0.65625 0
0.03125 0.625 0
0.0625 0.625 0
0.03125 0.65625 0
0.0625 0.65625 0
0 0.65625 0
0.03125 0.65625 0
0 0.6875 0
0.03125 0.6875 0
0.03125 0.65625 0
0.0625 0.65625 0
0.03125 0.6875 0
0.0625 0.6875 0
0.0625 0.625 0
0.09375 0.625 0
0.0625 0.65625 0
0.09375 0.65625 0
0.09375 0.625 0
0.125 0.625 0
0.09375 0.65625 0
0.125 0.65625 0
0.0625 0.65625 0
0.09375 0.65625 0
0.0625 0.6875 0
0.09375 0.6875 0
0.09375 0.65625 0
0.125 0.65625 0
0.09375 0.6875 0
0.125 0.6875 0
0 0.6875 0
0.03125 0.6875 0
0 0.71875 0
0.03125 0.71875 0
0.03125 0.6875 0
0.0625 0.6875 0
0.03125 0.71875 0
0.0625 0.71875 0
0 0.71875 0
0.03125 0.71875 0
0 0.75 0
0.03125 0.75 0
0.03125 0.71875 0
0.0625 0.71875 0
0.03125 0.75 0
0.0625 0.75 0
0.0625 0.6875 0
0.09375 0.6875 0
0.0625 0.71875 0
0.09375 0.71875 0
0.09375 0.6875 0
0.125 0.6875 0
0.09375 0.71875 0
0.125 0.71875 0
0.0625 0.71875 0
0.09375 0.71875 0
0.0625 0.75 0
0.09375 0.75 0
0.09375 0.71875 0
0.125 0.71875 0
0.09375 0.75 0
0.125 0.75 0
0.125 0.625 0
0.15625 0.625 0
0.125 0.65625 0
0.15625 0.65625 0
0.15625 0.625 0
0.1875 0.625 0
0.15625 0.65625 0
0.1875 0.65625 0
0.125 0.65625 0
0.15625 0.65625 0
0.125 0.6875 0
0.15625 0.6875 0
0.15625 0.65625 0
0.1875 0.65625 0
0.15625 0.6875 0
0.1875 0.6875 0
0.1875 0.625 0
0.21875 0.625 0
0.1875 0.65625 0
0.21875 0.65625 0
0.21875 0.625 0
0.25 0.625 0
0.21875 0.65625 0
0.25 0.65625 0
0.1875 0.65625 0
0.21875 0.65625 0
0.1875 0.6875 0
0.21875 0.6875 0
0.21875 0.65625 0
0.25 0.65625 0
0.21875 0.6875 0
0.25 0.6875 0
0.125 0.6875 0
0.15625 0.6875 0
0.125 0.71875 0
0.15625 0.71875 0
0.15625 0.6875 0
0.1875 0.6875 0
0.15625 0.71875 0
0.1875 0.71875 0
0.125 0.71875 0
0.15625 0.71875 0
0.125 0.75 0
0.15625 0.75 0
0.15625 0.71875 0
0.1875 0.71875 0
0.15625 0.75 0
0.1875 0.75 0
0.1875 0.6875 0
0.21875 0.6875 0
0.1875 0.71875 0
0.21875 0.71875 0
0.21875 0.6875 0
0.25 0.6875 0
0.21875 0.71875 0
0.25 0.71875 0
0.1875 0.71875 0
0.21875 0.71875 0
0.1875 0.75 0
0.21875 0.75 0
0.21875 0.71875 0
0.25 0.71875 0
0.21875 0.75 0
0.25 0.75 0
0.25 0.5 0
0.28125 0.5 0
0.25 0.53125 0
0.28125 0.53125 0
0.28125 0.5 0
0.3125 0.5 0
0.28125 0.53125 0
0.3125 0.53125 0
0.25 0.53125 0
0.28125 0.53125 0
0.25 0.5625 0
0.28125 0.5625 0
0.28125 0.53125 0
0.3125 0.53125 0
0.28125 0.5625 0
0.3125 0.5625 0
0.3125 0.5 0
0.34375 0.5 0
0.3125 0.53125 0
0.34375 0.53125 0
0.34375 0.5 0
0.375 0.5 0
0.34375 0.53125 0
0.375 0.53125 0
0.3125 0.53125 0
0.34375 0.53125 0
0.3125 0.5625 0
0.34375 0.5625 0
0.34375 0.53125 0
0.375 0.53125 0
0.34375 0.5625 0
0.375 0.5625 0
0.25 0.5625 0
0.28125 0.5625 0
0.25 0.59375 0
0.28125 0.59375 0
0.28125 0.5625 0
0.3125 0.5625 0
0.28125 0.59375 0
0.3125 0.59375 0
0.25 0.59375 0
0.28125 0.59375 0
0.25 0.625 0
0.28125 0.625 0
0.28125 0.59375 0
0.3125 0.59375 0
0.28125 0.625 0
0.3125 0.625 0
0.3125 0.5625 0
0.34375 0.5625 0
0.3125 0.59375 0
0.34375 0.59375 0
0.34375 0.5625 0
0.375 0.5625 0
0.34375 0.59375 0
0.375 0.59375 0
0.3125 0.59375 0
0.34375 0.59375 0
0.3125 0.625 0
0.34375 0.625 0
0.34375 0.59375 0
0.375 0.59375 0
0.34375 0.625 0
0.375 0.625 0
0.375 0.5 0
0.40625 0.5 0
0.375 0.53125 0
0.40625 0.53125 0
0.40625 0.5 0
0.4375 0.5 0
0.40625 0.53125 0
0.4375 0.53125 0
0.375 0.53125 0
0.40625 0.53125 0
0.375 0.5625 0
0.40625 0.5625 0
0.40625 0.53125 0
0.4375 0.53125 0
0.40625 0.5625 0
0.4375 0.5625 0
0.4375 0.5 0
0.46875 0.5 0
0.4375 0.53125 0
0.46875 0.53125 0
0.46875 0.5 0
0.5 0.5 0
0.46875 0.53125 0
0.5 0.53125 0
0.4375 0.53125 0
0.46875 0.53125 0
0.4375 0.5625 0
0.46875 0.5625 0
0.46875 0.53125 0
0.5 0.53125 0
0.46875 0.5625 0
0.5 0.5625 0
0.375 0.5625 0
0.40625 0.5625 0
0.375 0.59375 0
0.40625 0.59375 0
0.40625 0.5625 0
0.4375 0.5625 0
0.40625 0.59375 0
0.4375 0.59375 0
0.375 0.59375 0
0.40625 0.59375 0
0.375 0.625 0
0.40625 0.625 0
0.40625 0.59375 0
0.4375 0.59375 0
0.40625 0.625 0
0.4375 0.625 0
0.4375 0.5625 0
0.46875 0.5625 0
0.4375 0.59375 0
0.46875 0.59375 0
0.46875 0.5625 0
0.5 0.5625 0
0.46875 0.59375 0
0.5 0.59375 0
0.4375 0.59375 0
0.46875 0.59375 0
0.4375 0.625 0
0.46875 0.625 0
0.46875 0.59375 0
0.5 0.59375 0
0.46875 0.625 0
0.5 0.625 0
0.25 0.625 0
0.28125 0.625 0
0.25 0.65625 0
0.28125 0.65625 0
0.28125 0.625 0
0.3125 0.625 0
0.28125 0.65625 0
0.3125 0.65625 0
0.25 0.65625 0
0.28125 0.65625 0
0.25 0.6875 0
0.28125 0.6875 0
0.28125 0.65625 0
0.3125 0.65625 0
0.28125 0.6875 0
0.3125 0.6875 0
0.3125 0.625 0
0.34375 0.625 0
0.3125 0.65625 0
0.34375 0.65625 0
0.34375 0.625 0
0.375 0.625 0
0.34375 0.65625 0
0.375 0.65625 0
0.3125 0.65625 0
0.34375 0.65625 0
0.3125 0.6875 0
0.34375 0.6875 0
0.34375 0.65625 0
0.375 0.65625 0
0.34375 0.6875 0
0.375 0.6875 0
0.25 0.6875 0
0.28125 0.6875 0
0.25 0.71875 0
0.28125 0.71875 0
0.28125 0.6875 0
0.3125 0.6875 0
0.28125 0.71875 0
0.3125 0.71875 0
0.25 0.71875 0
0.28125 0.71875 0
0.25 0.75 0
0.28125 0.75 0
0.28125 0.71875 0
0.3125 0.71875 0
0.28125 0.75 0
0.3125 0.75 0
0.3125 0.6875 0
0.34375 0.6875 0
0.3125 0.71875 0
0.34375 0.71875 0
0.34375 0.6875 0
0.375 0.6875 0
0.34375 0.71875 0
0.375 0.71875 0
0.3125 0.71875 0
0.34375 0.71875 0
0.3125 0.75 0
0.34375 0.75 0
0.34375 0.71875 0
0.375 0.71875 0
0.34375 0.75 0
0.375 0.75 0
0.375 0.625 0
0.40625 0.625 0
0.375 0.65625 0
0.40625 0.65625 0
0.40625 0.625 0
0.4375 0.625 0
0.40625 0.65625 0
0.4375 0.65625 0
0.375 0.65625 0
0.40625 0.65625 0
0.375 0.6875 0
0.40625 0.6875 0
0.40625 0.65625 0
0.4375 0.65625 0
0.40625 0.6875 0
0.4375 0.6875 0
0.4375 0.625 0
0.46875 0.625 0
0.4375 0.65625 0
0.46875 0.65625 0
0.46875 0.625 0
0.5 0.625 0
0.46875 0.65625 0
0.5 0.65625 0
0.4375 0.65625 0
0.46875 0.65625 0
0.4375 0.6875 0
0.46875 0.6875 0
0.46875 0.65625 0
0.5 0.65625 0
0.46875 0.6875 0
0.5 0.6875 0
0.375 0.6875 0
0.40625 0.6875 0
0.375 0.71875 0
0.40625 0.71875 0
0.40625 0.6875 0
0.4375 0.6875 0
0.40625 0.71875 0
0.4375 0.71875 0
0.375 0.71875 0
0.40625 0.71875 0
0.375 0.75 0
0.40625 0.75 0
0.40625 0.71875 0
0.4375 0.71875 0
0.40625 0.75 0
0.4375 0.75 0
0.4375 0.6875 0
0.46875 0.6875 0
0.4375 0.71875 0
0.46875 0.71875 0
0.46875 0.6875 0
0.5 0.6875 0
0.46875 0.71875 0
0.5 0.71875 0
0.4375 0.71875 0
0.46875 0.71875 0
0.4375 0.75 0
0.46875 0.75 0
0.46875 0.71875 0
0.5 0.71875 0
0.46875 0.75 0
0.5 0.75 0
0 0.75 0
0.03125 0.75 0
0 0.78125 0
0.03125 0.78125 0
0.03125 0.75 0
0.0625 0.75 0
0.03125 0.78125 0
0.0625 0.78125 0
0 0.78125 0
0.03125 0.78125 0
0 0.8125 0
0.03125 0.8125 0
0.03125 0.78125 0
0.0625 0.78125 0
0.03125 0.8125 0
0.0625 0.8125 0
0.0625 0.75 0
0.09375 0.75 0
0.0625 0.78125 0
0.09375 0.78125 0
0.09375 0.75 0
0.125 0.75 0
0.09375 0.78125 0
0.125 0.78125 0
0.0625 0.78125 0
0.09375 0.78125 0
0.0625 0.8125 0
0.09375 0.8125 0
0.09375 0.78125 0
0.125 0.78125 0
0.09375 0.8125 0
0.125 0.8125 0
0 0.8125 0
0.03125 0.8125 0
0 0.84375 0
0.03125 0.84375 0
0.03125 0.8125 0
0.0625 0.8125 0
0.03125 0.84375 0
0.0625 0.84375 0
0 0.84375 0
0.03125 0.84375 0
0 0.875 0
0.03125 0.875 0
0.03125 0.84375 0
0.0625 0.84375 0
0.03125 0.875 0
0.0625 0.875 0
0.0625 0.8125 0
0.09375 0.8125 0
0.0625 0.84375 0
0.09375 0.84375 0
0.09375 0.8125 0
0.125 0.8125 0
0.09375 0.84375 0
0.125 0.84375 0
0.0625 0.84375 0
0.09375 0.84375 0
0.0625 0.875 0
0.09375 0.875 0
0.09375 0.84375 0
0.125 0.84375 0
0.09375 0.875 0
0.125 0.875 0
0.125 0.75 0
0.15625 0.75 0
0.125 0.78125 0
0.15625 0.78125 0
0.15625 0.75 0
0.1875 0.75 0
0.15625 0.78125 0
0.1875 0.78125 0
0.125 0.78125 0
0.15625 0.78125 0
0.125 0.8125 0
0.15625 0.8125 0
0.15625 0.78125 0
0.1875 0.78125 0
0.15625 0.8125 0
0.1875 0.8125 0
0.1875 0.75 0
0.21875 0.75 0
0.1875 0.78125 0
0.21875 0.78125 0
0.21875 0.75 0
0.25 0.75 0
0.21875 0.78125 0
0.25 0.78125 0
0.1875 0.78125 0
0.21875 0.78125 0
0.1875 0.8125 0
0.21875 0.8125 0
0.21875 0.78125 0
0.25 0.78125 0
0.21875 0.8125 0
0.25 0.8125 0
0.125 0.8125 0
0.15625 0.8125 0
0.125 0.84375 0
0.15625 0.84375 0
0.15625 0.8125 0
[...]
POINT_DATA 4096
SCALARS x_dis double 1
LOOKUP_TABLE default
2.00893e-12 2.00893e-12 -7.64458e-12 -7.64458e-12 2.00893e-12 2.00893e-12 -7.64458e-12 -7.64458e-12 -7.64458e-12 -7.64458e-12 2.34649e-11 2.34649e-11 -7.64458e-12 -7.64458e-12 2.34649e-11 2.34649e-11 2.00893e-12 2.00893e-12 -7.64458e-12 -7.64458e-12 2.00893e-12 2.00893e-12 -7.64458e-12 -7.64458e-12 -7.64458e-12 -7.64458e-12 2.34649e-11 2.34649e-11 -7.64458e-12 -7.64458e-12 2.34649e-11 2.34649e-11 2.34649e-11 2.34649e-11 -5.21361e-11 -5.21361e-11 2.34649e-11 2.34649e-11 -5.21361e-11 -5.21361e-11 -5.21361e-11 -5.21361e-11 3.23727e-11 3.23728e-11 -5.21361e-11 -5.21361e-11 3.23728e-11 3.23728e-11 2.34649e-11 2.34649e-11 -5.21361e-11 -5.2136e-11 2.34649e-11 2.34649e-11 -5.2136e-11 -5.2136e-11 -5.21361e-11 -5.2136e-11 3.23728e-11 3.23727e-11 -5.2136e-11 -5.2136e-11 3.23727e-11 3.23727e-11 2.00893e-12 2.00893e-12 -7.64458e-12 -7.64458e-12 2.00893e-12 2.00893e-12 -7.64458e-12 -7.64458e-12 -7.64458e-12 -7.64458e-12 2.34649e-11 2.34649e-11 -7.64458e-12 -7.64458e-12 2.34649e-11 2.34649e-11 2.00893e-12 2.00893e-12 -7.64458e-12 -7.64458e-12 2.00893e-12 2.00893e-12 -7.64458e-12 -7.64458e-12 -7.64458e-12 -7.64458e-12 2.34649e-11 2.34649e-11 -7.64458e-12 -7.64458e-12 2.34649e-11 2.34649e-11 2.34649e-11 2.34649e-11 -5.2136e-11 -5.2136e-11 2.34649e-11 2.34649e-11 -5.2136e-11 -5.2136e-11 -5.2136e-11 -5.2136e-11 3.23727e-11 3.23727e-11 -5.2136e-11 -5.2136e-11 3.23727e-11 3.23727e-11 2.34649e-11 2.34649e-11 -5.2136e-11 -5.2136e-11 2.34649e-11 2.34649e-11 -5.2136e-11 -5.2136e-11 -5.2136e-11 -5.2136e-11 3.23727e-11 3.23727e-11 -5.2136e-11 -5.2136e-11 3.23727e-11 3.23727e-11 3.23727e-11 3.23728e-11 4.4112e-10 4.4112e-10 3.23728e-11 3.23728e-11 4.4112e-10 4.4112e-10 4.4112e-10 4.4112e-10 -3.00088e-09 -3.00088e-09 4.4112e-10 4.4112e-10 -3.00088e-09 -3.00088e-09 3.23728e-11 3.23727e-11 4.4112e-10 4.41119e-10 3.23727e-11 3.23727e-11 4.41119e-10 4.41119e-10 4.4112e-10 4.41119e-10 -3.00088e-09 -3.00088e-09 4.41119e-10 4.41119e-10 -3.00088e-09 -3.00088e-09 -3.00088e-09 -3.00088e-09 1.19801e-08 1.19801e-08 -3.00088e-09 -3.00088e-09 1.19801e-08 1.19801e-08 1.19801e-08 1.19801e-08 -3.10497e-08 -3.10497e-08 1.19801e-08 1.19801e-08 -3.10497e-08 -3.10498e-08 -3.00088e-09 -3.00088e-09 1.19801e-08 1.19801e-08 -3.00088e-09 -3.00088e-09 1.19801e-08 1.19801e-08 1.19801e-08 1.19801e-08 -3.10498e-08 -3.10498e-08 1.19801e-08 1.19801e-08 -3.10498e-08 -3.10497e-08 3.23727e-11 3.23727e-11 4.41119e-10 4.41119e-10 3.23727e-11 3.23727e-11 4.41119e-10 4.41119e-10 4.41119e-10 4.41119e-10 -3.00088e-09 -3.00088e-09 4.41119e-10 4.41119e-10 -3.00088e-09 -3.00088e-09 3.23727e-11 3.23727e-11 4.41119e-10 4.41119e-10 3.23727e-11 3.23727e-11 4.41119e-10 4.41119e-10 4.41119e-10 4.41119e-10 -3.00088e-09 -3.00088e-09 4.41119e-10 4.41119e-10 -3.00088e-09 -3.00088e-09 -3.00088e-09 -3.00088e-09 1.19801e-08 1.19801e-08 -3.00088e-09 -3.00088e-09 1.19801e-08 1.19801e-08 1.19801e-08 1.19801e-08 -3.10497e-08 -3.10497e-08 1.19801e-08 1.19801e-08 -3.10497e-08 -3.10497e-08 -3.00088e-09 -3.00088e-09 1.19801e-08 1.19801e-08 -3.00088e-09 -3.00088e-09 1.19801e-08 1.19801e-08 1.19801e-08 1.19801e-08 -3.10497e-08 -3.10497e-08 1.19801e-08 1.19801e-08 -3.10497e-08 -3.10497e-08 2.00893e-12 2.00893e-12 -7.64458e-12 -7.64458e-12 2.00893e-12 2.00893e-12 -7.64458e-12 -7.64458e-12 -7.64458e-12 -7.64458e-12 2.34649e-11 2.34649e-11 -7.64458e-12 -7.64458e-12 2.34649e-11 2.34649e-11 2.00893e-12 2.00893e-12 -7.64458e-12 -7.64452e-12 2.00893e-12 2.00893e-12 -7.64452e-12 -7.64476e-12 -7.64458e-12 -7.64452e-12 2.34649e-11 2.34649e-11 -7.64452e-12 -7.64476e-12 2.34649e-11 2.34647e-11 2.34649e-11 2.34649e-11 -5.2136e-11 -5.2136e-11 2.34649e-11 2.34649e-11 -5.2136e-11 -5.2136e-11 -5.2136e-11 -5.2136e-11 3.23727e-11 3.23727e-11 -5.2136e-11 -5.2136e-11 3.23727e-11 3.23727e-11 2.34649e-11 2.34649e-11 -5.2136e-11 -5.2136e-11 2.34649e-11 2.34647e-11 -5.2136e-11 -5.2136e-11 -5.2136e-11 -5.2136e-11 3.23727e-11 3.23727e-11 -5.2136e-11 -5.2136e-11 3.23727e-11 3.23727e-11 2.00893e-12 2.00892e-12 -7.64476e-12 -7.64452e-12 2.00892e-12 2.00896e-12 -7.64452e-12 -7.64213e-12 -7.64476e-12 -7.64452e-12 2.34647e-11 2.34656e-11 -7.64452e-12 -7.64213e-12 2.34656e-11 2.34628e-11 2.00896e-12 2.00892e-12 -7.64213e-12 -7.65521e-12 2.00892e-12 2.00862e-12 -7.65521e-12 -7.64792e-12 -7.64213e-12 -7.65521e-12 2.34628e-11 2.34689e-11 -7.65521e-12 -7.64792e-12 2.34689e-11 2.3458e-11 2.34647e-11 2.34656e-11 -5.2136e-11 -5.21364e-11 2.34656e-11 2.34628e-11 -5.21364e-11 -5.21346e-11 -5.2136e-11 -5.21364e-11 3.23727e-11 3.23727e-11 -5.21364e-11 -5.21346e-11 3.23727e-11 3.23722e-11 2.34628e-11 2.34689e-11 -5.21346e-11 -5.21391e-11 2.34689e-11 2.3458e-11 -5.21391e-11 -5.21326e-11 -5.21346e-11 -5.21391e-11 3.23722e-11 3.23745e-11 -5.21391e-11 -5.21326e-11 3.23745e-11 3.23717e-11 3.23727e-11 3.23727e-11 4.41119e-10 4.41119e-10 3.23727e-11 3.23727e-11 4.41119e-10 4.41119e-10 4.41119e-10 4.41119e-10 -3.00088e-09 -3.00088e-09 4.41119e-10 4.41119e-10 -3.00088e-09 -3.00088e-09 3.23727e-11 3.23727e-11 4.41119e-10 4.41119e-10 3.23727e-11 3.23727e-11 4.41119e-10 4.41119e-10 4.41119e-10 4.41119e-10 -3.00088e-09 -3.00088e-09 4.41119e-10 4.41119e-10 -3.00088e-09 -3.00088e-09 -3.00088e-09 -3.00088e-09 1.19801e-08 1.19801e-08 -3.00088e-09 -3.00088e-09 1.19801e-08 1.19801e-08 1.19801e-08 1.19801e-08 -3.10497e-08 -3.10497e-08 1.19801e-08 1.19801e-08 -3.10497e-08 -3.10497e-08 -3.00088e-09 -3.00088e-09 1.19801e-08 1.19801e-08 -3.00088e-09 -3.00088e-09 1.19801e-08 1.19801e-08 1.19801e-08 1.19801e-08 -3.10497e-08 -3.10497e-08 1.19801e-08 1.19801e-08 -3.10497e-08 -3.10497e-08 3.23727e-11 3.23727e-11 4.41119e-10 4.41119e-10 3.23727e-11 3.23722e-11 4.41119e-10 4.4112e-10 4.41119e-10 4.41119e-10 -3.00088e-09 -3.00088e-09 4.41119e-10 4.4112e-10 -3.00088e-09 -3.00088e-09 3.23722e-11 3.23745e-11 4.4112e-10 4.41119e-10 3.23745e-11 3.23717e-11 4.41119e-10 4.4112e-10 4.4112e-10 4.41119e-10 -3.00088e-09 -3.00088e-09 4.41119e-10 4.4112e-10 -3.00088e-09 -3.00088e-09 -3.00088e-09 -3.00088e-09 1.19801e-08 1.19801e-08 -3.00088e-09 -3.00088e-09 1.19801e-08 1.19801e-08 1.19801e-08 1.19801e-08 -3.10497e-08 -3.10497e-08 1.19801e-08 1.19801e-08 -3.10497e-08 -3.10497e-08 -3.00088e-09 -3.00088e-09 1.19801e-08 1.19801e-08 -3.00088e-09 -3.00088e-09 1.19801e-08 1.19801e-08 1.19801e-08 1.19801e-08 -3.10497e-08 -3.10497e-08 1.19801e-08 1.19801e-08 -3.10497e-08 -3.10497e-08 -3.10497e-08 -3.10497e-08 2.51092e-08 2.51093e-08 -3.10497e-08 -3.10498e-08 2.51093e-08 2.51094e-08 2.51092e-08 2.51093e-08 2.30536e-07 2.30536e-07 2.51093e-08 2.51094e-08 2.30536e-07 2.30537e-07 -3.10498e-08 -3.10498e-08 2.51094e-08 2.51095e-08 -3.10498e-08 -3.10497e-08 2.51095e-08 2.51095e-08 2.51094e-08 2.51095e-08 2.30537e-07 2.30537e-07 2.51095e-08 2.51095e-08 2.30537e-07 2.30536e-07 2.30536e-07 2.30536e-07 -1.33023e-06 -1.33023e-06 2.30536e-07 2.30537e-07 -1.33023e-06 -1.33023e-06 -1.33023e-06 -1.33023e-06 2.68461e-06 2.68461e-06 -1.33023e-06 -1.33023e-06 2.68461e-06 2.68462e-06 2.30537e-07 2.30537e-07 -1.33023e-06 -1.33024e-06 2.30537e-07 2.30536e-07 -1.33024e-06 -1.33024e-06 -1.33023e-06 -1.33024e-06 2.68462e-06 2.68462e-06 -1.33024e-06 -1.33024e-06 2.68462e-06 2.68463e-06 -3.10497e-08 -3.10497e-08 2.51095e-08 2.51095e-08 -3.10497e-08 -3.10497e-08 2.51095e-08 2.51095e-08 2.51095e-08 2.51095e-08 2.30536e-07 2.30536e-07 2.51095e-08 2.51095e-08 2.30536e-07 2.30536e-07 -3.10497e-08 -3.10497e-08 2.51095e-08 2.51095e-08 -3.10497e-08 -3.10497e-08 2.51095e-08 2.51095e-08 2.51095e-08 2.51095e-08 2.30536e-07 2.30536e-07 2.51095e-08 2.51095e-08 2.30536e-07 2.30536e-07 2.30536e-07 2.30536e-07 -1.33024e-06 -1.33024e-06 2.30536e-07 2.30536e-07 -1.33024e-06 -1.33024e-06 -1.33024e-06 -1.33024e-06 2.68463e-06 2.68463e-06 -1.33024e-06 -1.33024e-06 2.68463e-06 2.68463e-06 2.30536e-07 2.30536e-07 -1.33024e-06 -1.33024e-06 2.30536e-07 2.30536e-07 -1.33024e-06 -1.33024e-06 -1.33024e-06 -1.33024e-06 2.68463e-06 2.68463e-06 -1.33024e-06 -1.33024e-06 2.68463e-06 2.68463e-06 2.68461e-06 2.68461e-06 6.61267e-06 6.61278e-06 2.68461e-06 2.68462e-06 6.61278e-06 6.61296e-06 6.61267e-06 6.61278e-06 -4.21379e-05 -4.21373e-05 6.61278e-06 6.61296e-06 -4.21373e-05 -4.21366e-05 2.68462e-06 2.68462e-06 6.61296e-06 6.61304e-06 2.68462e-06 2.68463e-06 6.61304e-06 6.61305e-06 6.61296e-06 6.61304e-06 -4.21366e-05 -4.21364e-05 6.61304e-06 6.61305e-06 -4.21364e-05 -4.21364e-05 -4.21379e-05 -4.21373e-05 -0.000141296 -0.000141293 -4.21373e-05 -4.21366e-05 -0.000141293 -0.000141292 -0.000141296 -0.000141293 -0.00025 -0.00025 -0.000141293 -0.000141292 -0.00025 -0.00025 -4.21366e-05 -4.21364e-05 -0.000141292 -0.000141292 -4.21364e-05 -4.21364e-05 -0.000141292 -0.000141292 -0.000141292 -0.000141292 -0.00025 -0.00025 -0.000141292 -0.000141292 -0.00025 -0.00025 2.68463e-06 2.68463e-06 6.61305e-06 6.61305e-06 2.68463e-06 2.68463e-06 6.61305e-06 6.61305e-06 6.61305e-06 6.61305e-06 -4.21364e-05 -4.21364e-05 6.61305e-06 6.61305e-06 -4.21364e-05 -4.21364e-05 2.68463e-06 2.68463e-06 6.61305e-06 6.61305e-06 2.68463e-06 2.68463e-06 6.61305e-06 6.61305e-06 6.61305e-06 6.61305e-06 -4.21364e-05 -4.21364e-05 6.61305e-06 6.61305e-06 -4.21364e-05 -4.21364e-05 -4.21364e-05 -4.21364e-05 -0.000141292 -0.000141292 -4.21364e-05 -4.21364e-05 -0.000141292 -0.000141292 -0.000141292 -0.000141292 -0.00025 -0.00025 -0.000141292 -0.000141292 -0.00025 -0.00025 -4.21364e-05 -4.21364e-05 -0.000141292 -0.000141292 -4.21364e-05 -4.21364e-05 -0.000141292 -0.000141292 -0.000141292 -0.000141292 -0.00025 -0.00025 -0.000141292 -0.000141292 -0.00025 -0.00025 -3.10497e-08 -3.10497e-08 2.51095e-08 2.51095e-08 -3.10497e-08 -3.10497e-08 2.51095e-08 2.51095e-08 2.51095e-08 2.51095e-08 2.30536e-07 2.30536e-07 2.51095e-08 2.51095e-08 2.30536e-07 2.30536e-07 -3.10497e-08 -3.10497e-08 2.51095e-08 2.51095e-08 -3.10497e-08 -3.10497e-08 2.51095e-08 2.51095e-08 2.51095e-08 2.51095e-08 2.30536e-07 2.30536e-07 2.51095e-08 2.51095e-08 2.30536e-07 2.30536e-07 2.30536e-07 2.30536e-07 -1.33024e-06 -1.33024e-06 2.30536e-07 2.30536e-07 -1.33024e-06 -1.33024e-06 -1.33024e-06 -1.33024e-06 2.68463e-06 2.68463e-06 -1.33024e-06 -1.33024e-06 2.68463e-06 2.68463e-06 2.30536e-07 2.30536e-07 -1.33024e-06 -1.33024e-06 2.30536e-07 2.30536e-07 -1.33024e-06 -1.33024e-06 -1.33024e-06 -1.33024e-06 2.68463e-06 2.68463e-06 -1.33024e-06 -1.33024e-06 2.68463e-06 2.68463e-06 -3.10497e-08 -3.10497e-08 2.51095e-08 2.51095e-08 -3.10497e-08 -3.10497e-08 2.51095e-08 2.51095e-08 2.51095e-08 2.51095e-08 2.30536e-07 2.30536e-07 2.51095e-08 2.51095e-08 2.30536e-07 2.30536e-07 -3.10497e-08 -3.10497e-08 2.51095e-08 2.51095e-08 -3.10497e-08 -3.10497e-08 2.51095e-08 2.51095e-08 2.51095e-08 2.51095e-08 2.30536e-07 2.30536e-07 2.51095e-08 2.51095e-08 2.30536e-07 2.30536e-07 2.30536e-07 2.30536e-07 -1.33024e-06 -1.33024e-06 2.30536e-07 2.30536e-07 -1.33024e-06 -1.33024e-06 -1.33024e-06 -1.33024e-06 2.68463e-06 2.68463e-06 -1.33024e-06 -1.33024e-06 2.68463e-06 2.68463e-06 2.30536e-07 2.30536e-07 -1.33024e-06 -1.33024e-06 2.30536e-07 2.30536e-07 -1.33024e-06 -1.33024e-06 -1.33024e-06 -1.33024e-06 2.68463e-06 2.68463e-06 -1.33024e-06 -1.33024e-06 2.68463e-06 2.68463e-06 2.68463e-06 2.68463e-06 6.61305e-06 6.61305e-06 2.68463e-06 2.68463e-06 6.61305e-06 6.61305e-06 6.61305e-06 6.61305e-06 -4.21364e-05 -4.21364e-05 6.61305e-06 6.61305e-06 -4.21364e-05 -4.21364e-05 2.68463e-06 2.68463e-06 6.61305e-06 6.61305e-06 2.68463e-06 2.68463e-06 6.61305e-06 6.61305e-06 6.61305e-06 6.61305e-06 -4.21364e-05 -4.21364e-05 6.61305e-06 6.61305e-06 -4.21364e-05 -4.21364e-05 -4.21364e-05 -4.21364e-05 -0.000141292 -0.000141292 -4.21364e-05 -4.21364e-05 -0.000141292 -0.000141292 -0.000141292 -0.000141292 -0.00025 -0.00025 -0.000141292 -0.000141292 -0.00025 -0.00025 -4.21364e-05 -4.21364e-05 -0.000141292 -0.000141292 -4.21364e-05 -4.21364e-05 -0.000141292 -0.000141292 -0.000141292 -0.000141292 -0.00025 -0.00025 -0.000141292 -0.000141292 -0.00025 -0.00025 2.68463e-06 2.68463e-06 6.61305e-06 6.61305e-06 2.68463e-06 2.68463e-06 6.61305e-06 6.61305e-06 6.61305e-06 6.61305e-06 -4.21364e-05 -4.21364e-05 6.61305e-06 6.61305e-06 -4.21364e-05 -4.21364e-05 2.68463e-06 2.68463e-06 6.61305e-06 6.61305e-06 2.68463e-06 2.68463e-06 6.61305e-06 6.61305e-06 6.61305e-06 6.61305e-06 -4.21364e-05 -4.21364e-05 6.61305e-06 6.61305e-06 -4.21364e-05 -4.21364e-05 -4.21364e-05 -4.21364e-05 -0.000141292 -0.000141292 -4.21364e-05 -4.21364e-05 -0.000141292 -0.000141292 -0.000141292 -0.000141292 -0.00025 -0.00025 -0.000141292 -0.000141292 -0.00025 -0.00025 -4.21364e-05 -4.21364e-05 -0.000141292 -0.000141292 -4.21364e-05 -4.21364e-05 -0.000141292 -0.000141292 -0.000141292 -0.000141292 -0.00025 -0.00025 -0.000141292 -0.000141292 -0.00025 -0.00025 2.00862e-12 4.00802e-12 -7.64792e-12 -8.00421e-12 4.00802e-12 4.16778e-12 -8.00421e-12 -8.08408e-12 -7.64792e-12 -8.00421e-12 2.3458e-11 2.34991e-11 -8.00421e-12 -8.08408e-12 2.34991e-11 2.35245e-11 4.16778e-12 3.9742e-12 -8.08408e-12 -8.06508e-12 3.9742e-12 4.02061e-12 -8.06508e-12 -8.06338e-12 -8.08408e-12 -8.06508e-12 2.35245e-11 2.35253e-11 -8.06508e-12 -8.06338e-12 2.35253e-11 2.35201e-11 2.3458e-11 2.34991e-11 -5.21326e-11 -5.21243e-11 2.34991e-11 2.35245e-11 -5.21243e-11 -5.21311e-11 -5.21326e-11 -5.21243e-11 3.23717e-11 3.23637e-11 -5.21243e-11 -5.21311e-11 3.23637e-11 3.23649e-11 2.35245e-11 2.35253e-11 -5.21311e-11 -5.21351e-11 2.35253e-11 2.35201e-11 -5.21351e-11 -5.21318e-11 -5.21311e-11 -5.21351e-11 3.23649e-11 3.23675e-11 -5.21351e-11 -5.21318e-11 3.23675e-11 3.23664e-11 4.02061e-12 4.02023e-12 -8.06338e-12 -8.06421e-12 4.02023e-12 4.0168e-12 -8.06421e-12 -8.06441e-12 -8.06338e-12 -8.06421e-12 2.35201e-11 2.35223e-11 -8.06421e-12 -8.06441e-12 2.35223e-11 2.3522e-11 4.0168e-12 4.01809e-12 -8.06441e-12 -8.06424e-12 4.01809e-12 4.01785e-12 -8.06424e-12 -8.06428e-12 -8.06441e-12 -8.06424e-12 2.3522e-11 2.35219e-11 -8.06424e-12 -8.06428e-12 2.35219e-11 2.3522e-11 2.35201e-11 2.35223e-11 -5.21318e-11 -5.21326e-11 2.35223e-11 2.3522e-11 -5.21326e-11 -5.21327e-11 -5.21318e-11 -5.21326e-11 3.23664e-11 3.23664e-11 -5.21326e-11 -5.21327e-11 3.23664e-11 3.23665e-11 2.3522e-11 2.35219e-11 -5.21327e-11 -5.21325e-11 2.35219e-11 2.3522e-11 -5.21325e-11 -5.21326e-11 -5.21327e-11 -5.21325e-11 3.23665e-11 3.23665e-11 -5.21325e-11 -5.21326e-11 3.23665e-11 3.23665e-11 3.23717e-11 3.23637e-11 4.4112e-10 4.41123e-10 3.23637e-11 3.23649e-11 4.41123e-10 4.41123e-10 4.4112e-10 4.41123e-10 -3.00088e-09 -3.00088e-09 4.41123e-10 4.41123e-10 -3.00088e-09 -3.00088e-09 3.23649e-11 3.23675e-11 4.41123e-10 4.41122e-10 3.23675e-11 3.23664e-11 4.41122e-10 4.41122e-10 4.41123e-10 4.41122e-10 -3.00088e-09 -3.00088e-09 4.41122e-10 4.41122e-10 -3.00088e-09 -3.00088e-09 -3.00088e-09 -3.00088e-09 1.19801e-08 1.19801e-08 -3.00088e-09 -3.00088e-09 1.19801e-08 1.19801e-08 1.19801e-08 1.19801e-08 -3.10497e-08 -3.10497e-08 1.19801e-08 1.19801e-08 -3.10497e-08 -3.10497e-08 -3.00088e-09 -3.00088e-09 1.19801e-08 1.19801e-08 -3.00088e-09 -3.00088e-09 1.19801e-08 1.19801e-08 1.19801e-08 1.19801e-08 -3.10497e-08 -3.10497e-08 1.19801e-08 1.19801e-08 -3.10497e-08 -3.10497e-08 3.23664e-11 3.23664e-11 4.41122e-10 4.41122e-10 3.23664e-11 3.23665e-11 4.41122e-10 4.41122e-10 4.41122e-10 4.41122e-10 -3.00088e-09 -3.00088e-09 4.41122e-10 4.41122e-10 -3.00088e-09 -3.00088e-09 3.23665e-11 3.23665e-11 4.41122e-10 4.41122e-10 3.23665e-11 3.23665e-11 4.41122e-10 4.41122e-10 4.41122e-10 4.41122e-10 -3.00088e-09 -3.00088e-09 4.41122e-10 4.41122e-10 -3.00088e-09 -3.00088e-09 -3.00088e-09 -3.00088e-09 1.19801e-08 1.19801e-08 -3.00088e-09 -3.00088e-09 1.19801e-08 1.19801e-08 1.19801e-08 1.19801e-08 -3.10497e-08 -3.10497e-08 1.19801e-08 1.19801e-08 -3.10497e-08 -3.10497e-08 -3.00088e-09 -3.00088e-09 1.19801e-08 1.19801e-08 -3.00088e-09 -3.00088e-09 1.19801e-08 1.19801e-08 1.19801e-08 1.19801e-08 -3.10497e-08 -3.10497e-08 1.19801e-08 1.19801e-08 -3.10497e-08 -3.10497e-08 4.01785e-12 4.01785e-12 -8.06428e-12 -8.06428e-12 4.01785e-12 4.01787e-12 -8.06428e-12 -8.06427e-12 -8.06428e-12 -8.06428e-12 2.3522e-11 2.35219e-11 -8.06428e-12 -8.06427e-12 2.35219e-11 2.35219e-11 4.01787e-12 4.01786e-12 -8.06427e-12 -8.06428e-12 4.01786e-12 4.01787e-12 -8.06428e-12 -8.06428e-12 -8.06427e-12 -8.06428e-12 2.35219e-11 2.35219e-11 -8.06428e-12 -8.06428e-12 2.35219e-11 2.35219e-11 2.3522e-11 2.35219e-11 -5.21326e-11 -5.21326e-11 2.35219e-11 2.35219e-11 -5.21326e-11 -5.21326e-11 -5.21326e-11 -5.21326e-11 3.23665e-11 3.23665e-11 -5.21326e-11 -5.21326e-11 3.23665e-11 3.23665e-11 2.35219e-11 2.35219e-11 -5.21326e-11 -5.21326e-11 2.35219e-11 2.35219e-11 -5.21326e-11 -5.21326e-11 -5.21326e-11 -5.21326e-11 3.23665e-11 3.23665e-11 -5.21326e-11 -5.21326e-11 3.23665e-11 3.23665e-11 4.01787e-12 4.01787e-12 -8.06428e-12 -8.06428e-12 4.01787e-12 4.01787e-12 -8.06428e-12 -8.06428e-12 -8.06428e-12 -8.06428e-12 2.35219e-11 2.35219e-11 -8.06428e-12 -8.06428e-12 2.35219e-11 2.35219e-11 4.01787e-12 4.01787e-12 -8.06428e-12 -8.06428e-12 4.01787e-12 4.01787e-12 -8.06428e-12 -8.06428e-12 -8.06428e-12 -8.06428e-12 2.35219e-11 2.35219e-11 -8.06428e-12 -8.06428e-12 2.35219e-11 2.35219e-11 2.35219e-11 2.35219e-11 -5.21326e-11 -5.21326e-11 2.35219e-11 2.35219e-11 -5.21326e-11 -5.21326e-11 -5.21326e-11 -5.21326e-11 3.23665e-11 3.23665e-11 -5.21326e-11 -5.21326e-11 3.23665e-11 3.23664e-11 2.35219e-11 2.35219e-11 -5.21326e-11 -5.21325e-11 2.35219e-11 2.35219e-11 -5.21325e-11 -5.21326e-11 -5.21326e-11 -5.21325e-11 3.23664e-11 3.23664e-11 -5.21325e-11 -5.21326e-11 3.23664e-11 3.23664e-11 3.23665e-11 3.23665e-11 4.41122e-10 4.41122e-10 3.23665e-11 3.23665e-11 4.41122e-10 4.41122e-10 4.41122e-10 4.41122e-10 -3.00088e-09 -3.00088e-09 4.41122e-10 4.41122e-10 -3.00088e-09 -3.00088e-09 3.23665e-11 3.23665e-11 4.41122e-10 4.41122e-10 3.23665e-11 3.23665e-11 4.41122e-10 4.41122e-10 4.41122e-10 4.41122e-10 -3.00088e-09 -3.00088e-09 4.41122e-10 4.41122e-10 -3.00088e-09 -3.00088e-09 -3.00088e-09 -3.00088e-09 1.19801e-08 1.19801e-08 -3.00088e-09 -3.00088e-09 1.19801e-08 1.19801e-08 1.19801e-08 1.19801e-08 -3.10497e-08 -3.10497e-08 1.19801e-08 1.19801e-08 -3.10497e-08 -3.10497e-08 -3.00088e-09 -3.00088e-09 1.19801e-08 1.19801e-08 -3.00088e-09 -3.00088e-09 1.19801e-08 1.19801e-08 1.19801e-08 1.19801e-08 -3.10497e-08 -3.10497e-08 1.19801e-08 1.19801e-08 -3.10497e-08 -3.10497e-08 3.23665e-11 3.23665e-11 4.41122e-10 4.41122e-10 3.23665e-11 3.23664e-11 4.41122e-10 4.41122e-10 4.41122e-10 4.41122e-10 -3.00088e-09 -3.00088e-09 4.41122e-10 4.41122e-10 -3.00088e-09 -3.00088e-09 3.23664e-11 3.23664e-11 4.41122e-10 4.41122e-10 3.23664e-11 3.23664e-11 4.41122e-10 4.41122e-10 4.41122e-10 4.41122e-10 -3.00088e-09 -3.00088e-09 4.41122e-10 4.41122e-10 -3.00088e-09 -3.00088e-09 -3.00088e-09 -3.00088e-09 1.19801e-08 1.19801e-08 -3.00088e-09 -3.00088e-09 1.19801e-08 1.19801e-08 1.19801e-08 1.19801e-08 -3.10497e-08 -3.10497e-08 1.19801e-08 1.19801e-08 -3.10497e-08 -3.10497e-08 -3.00088e-09 -3.00088e-09 1.19801e-08 1.19801e-08 -3.00088e-09 -3.00088e-09 1.19801e-08 1.19801e-08 1.19801e-08 1.19801e-08 -3.10497e-08 -3.10498e-08 1.19801e-08 1.19801e-08 -3.10498e-08 -3.10498e-08 -3.10497e-08 -3.10497e-08 2.51095e-08 2.51095e-08 -3.10497e-08 -3.10497e-08 2.51095e-08 2.51095e-08 2.51095e-08 2.51095e-08 2.30536e-07 2.30536e-07 2.51095e-08 2.51095e-08 2.30536e-07 2.30536e-07 -3.10497e-08 -3.10497e-08 2.51095e-08 2.51095e-08 -3.10497e-08 -3.10497e-08 2.51095e-08 2.51095e-08 2.51095e-08 2.51095e-08 2.30536e-07 2.30536e-07 2.51095e-08 2.51095e-08 2.30536e-07 2.30536e-07 2.30536e-07 2.30536e-07 -1.33024e-06 -1.33024e-06 2.30536e-07 2.30536e-07 -1.33024e-06 -1.33024e-06 -1.33024e-06 -1.33024e-06 2.68463e-06 2.68463e-06 -1.33024e-06 -1.33024e-06 2.68463e-06 2.68463e-06 2.30536e-07 2.30536e-07 -1.33024e-06 -1.33024e-06 2.30536e-07 2.30536e-07 -1.33024e-06 -1.33024e-06 -1.33024e-06 -1.33024e-06 2.68463e-06 2.68463e-06 -1.33024e-06 -1.33024e-06 2.68463e-06 2.68463e-06 -3.10497e-08 -3.10497e-08 2.51095e-08 2.51095e-08 -3.10497e-08 -3.10497e-08 2.51095e-08 2.51095e-08 2.51095e-08 2.51095e-08 2.30536e-07 2.30536e-07 2.51095e-08 2.51095e-08 2.30536e-07 2.30536e-07 -3.10497e-08 -3.10