# vtk DataFile Version 3.0
#This file was generated by the deal.II library on 2022/11/16 at 21:23:15
ASCII
DATASET UNSTRUCTURED_GRID

POINTS 4096 double
0 0.5 0
0.03125 0.5 0
0 0.53125 0
0.03125 0.53125 0
0.03125 0.5 0
0.0625 0.5 0
0.03125 0.53125 0
0.0625 0.53125 0
0 0.53125 0
0.03125 0.53125 0
0 0.5625 0
0.03125 0.5625 0
0.03125 0.53125 0
0.0625 0.53125 0
0.03125 0.5625 0
0.0625 0.5625 0
0.0625 0.5 0
0.09375 0.5 0
0.0625 0.53125 0
0.09375 0.53125 0
0.09375 0.5 0
0.125 0.5 0
0.09375 0.53125 0
0.125 0.53125 0
0.0625 0.53125 0
0.09375 0.53125 0
0.0625 0.5625 0
0.09375 0.5625 0
0.09375 0.53125 0
0.125 0.53125 0
0.09375 0.5625 0
0.125 0.5625 0
0 0.5625 0
0.03125 0.5625 0
0 0.59375 0
0.03125 0.59375 0
0.03125 0.5625 0
0.0625 0.5625 0
0.03125 0.59375 0
0.0625 0.59375 0
0 0.59375 0
0.03125 0.59375 0
0 0.625 0
0.03125 0.625 0
0.03125 0.59375 0
0.0625 0.59375 0
0.03125 0.625 0
0.0625 0.625 0
0.0625 0.5625 0
0.09375 0.5625 0
0.0625 0.59375 0
0.09375 0.59375 0
0.09375 0.5625 0
0.125 0.5625 0
0.09375 0.59375 0
0.125 0.59375 0
0.0625 0.59375 0
0.09375 0.59375 0
0.0625 0.625 0
0.09375 0.625 0
0.09375 0.59375 0
0.125 0.59375 0
0.09375 0.625 0
0.125 0.625 0
0.125 0.5 0
0.15625 0.5 0
0.125 0.53125 0
0.15625 0.53125 0
0.15625 0.5 0
0.1875 0.5 0
0.15625 0.53125 0
0.1875 0.53125 0
0.125 0.53125 0
0.15625 0.53125 0
0.125 0.5625 0
0.15625 0.5625 0
0.15625 0.53125 0
0.1875 0.53125 0
0.15625 0.5625 0
0.1875 0.5625 0
0.1875 0.5 0
0.21875 0.5 0
0.1875 0.53125 0
0.21875 0.53125 0
0.21875 0.5 0
0.25 0.5 0
0.21875 0.53125 0
0.25 0.53125 0
0.1875 0.53125 0
0.21875 0.53125 0
0.1875 0.5625 0
0.21875 0.5625 0
0.21875 0.53125 0
0.25 0.53125 0
0.21875 0.5625 0
0.25 0.5625 0
0.125 0.5625 0
0.15625 0.5625 0
0.125 0.59375 0
0.15625 0.59375 0
0.15625 0.5625 0
0.1875 0.5625 0
0.15625 0.59375 0
0.1875 0.59375 0
0.125 0.59375 0
0.15625 0.59375 0
0.125 0.625 0
0.15625 0.625 0
0.15625 0.59375 0
0.1875 0.59375 0
0.15625 0.625 0
0.1875 0.625 0
0.1875 0.5625 0
0.21875 0.5625 0
0.1875 0.59375 0
0.21875 0.59375 0
0.21875 0.5625 0
0.25 0.5625 0
0.21875 0.59375 0
0.25 0.59375 0
0.1875 0.59375 0
0.21875 0.59375 0
0.1875 0.625 0
0.21875 0.625 0
0.21875 0.59375 0
0.25 0.59375 0
0.21875 0.625 0
0.25 0.625 0
0 0.625 0
0.03125 0.625 0
0 0.65625 0
0.03125 0.65625 0
0.03125 0.625 0
0.0625 0.625 0
0.03125 0.65625 0
0.0625 0.65625 0
0 0.65625 0
0.03125 0.65625 0
0 0.6875 0
0.03125 0.6875 0
0.03125 0.65625 0
0.0625 0.65625 0
0.03125 0.6875 0
0.0625 0.6875 0
0.0625 0.625 0
0.09375 0.625 0
0.0625 0.65625 0
0.09375 0.65625 0
0.09375 0.625 0
0.125 0.625 0
0.09375 0.65625 0
0.125 0.65625 0
0.0625 0.65625 0
0.09375 0.65625 0
0.0625 0.6875 0
0.09375 0.6875 0
0.09375 0.65625 0
0.125 0.65625 0
0.09375 0.6875 0
0.125 0.6875 0
0 0.6875 0
0.03125 0.6875 0
0 0.71875 0
0.03125 0.71875 0
0.03125 0.6875 0
0.0625 0.6875 0
0.03125 0.71875 0
0.0625 0.71875 0
0 0.71875 0
0.03125 0.71875 0
0 0.75 0
0.03125 0.75 0
0.03125 0.71875 0
0.0625 0.71875 0
0.03125 0.75 0
0.0625 0.75 0
0.0625 0.6875 0
0.09375 0.6875 0
0.0625 0.71875 0
0.09375 0.71875 0
0.09375 0.6875 0
0.125 0.6875 0
0.09375 0.71875 0
0.125 0.71875 0
0.0625 0.71875 0
0.09375 0.71875 0
0.0625 0.75 0
0.09375 0.75 0
0.09375 0.71875 0
0.125 0.71875 0
0.09375 0.75 0
0.125 0.75 0
0.125 0.625 0
0.15625 0.625 0
0.125 0.65625 0
0.15625 0.65625 0
0.15625 0.625 0
0.1875 0.625 0
0.15625 0.65625 0
0.1875 0.65625 0
0.125 0.65625 0
0.15625 0.65625 0
0.125 0.6875 0
0.15625 0.6875 0
0.15625 0.65625 0
0.1875 0.65625 0
0.15625 0.6875 0
0.1875 0.6875 0
0.1875 0.625 0
0.21875 0.625 0
0.1875 0.65625 0
0.21875 0.65625 0
0.21875 0.625 0
0.25 0.625 0
0.21875 0.65625 0
0.25 0.65625 0
0.1875 0.65625 0
0.21875 0.65625 0
0.1875 0.6875 0
0.21875 0.6875 0
0.21875 0.65625 0
0.25 0.65625 0
0.21875 0.6875 0
0.25 0.6875 0
0.125 0.6875 0
0.15625 0.6875 0
0.125 0.71875 0
0.15625 0.71875 0
0.15625 0.6875 0
0.1875 0.6875 0
0.15625 0.71875 0
0.1875 0.71875 0
0.125 0.71875 0
0.15625 0.71875 0
0.125 0.75 0
0.15625 0.75 0
0.15625 0.71875 0
0.1875 0.71875 0
0.15625 0.75 0
0.1875 0.75 0
0.1875 0.6875 0
0.21875 0.6875 0
0.1875 0.71875 0
0.21875 0.71875 0
0.21875 0.6875 0
0.25 0.6875 0
0.21875 0.71875 0
0.25 0.71875 0
0.1875 0.71875 0
0.21875 0.71875 0
0.1875 0.75 0
0.21875 0.75 0
0.21875 0.71875 0
0.25 0.71875 0
0.21875 0.75 0
0.25 0.75 0
0.25 0.5 0
0.28125 0.5 0
0.25 0.53125 0
0.28125 0.53125 0
0.28125 0.5 0
0.3125 0.5 0
0.28125 0.53125 0
0.3125 0.53125 0
0.25 0.53125 0
0.28125 0.53125 0
0.25 0.5625 0
0.28125 0.5625 0
0.28125 0.53125 0
0.3125 0.53125 0
0.28125 0.5625 0
0.3125 0.5625 0
0.3125 0.5 0
0.34375 0.5 0
0.3125 0.53125 0
0.34375 0.53125 0
0.34375 0.5 0
0.375 0.5 0
0.34375 0.53125 0
0.375 0.53125 0
0.3125 0.53125 0
0.34375 0.53125 0
0.3125 0.5625 0
0.34375 0.5625 0
0.34375 0.53125 0
0.375 0.53125 0
0.34375 0.5625 0
0.375 0.5625 0
0.25 0.5625 0
0.28125 0.5625 0
0.25 0.59375 0
0.28125 0.59375 0
0.28125 0.5625 0
0.3125 0.5625 0
0.28125 0.59375 0
0.3125 0.59375 0
0.25 0.59375 0
0.28125 0.59375 0
0.25 0.625 0
0.28125 0.625 0
0.28125 0.59375 0
0.3125 0.59375 0
0.28125 0.625 0
0.3125 0.625 0
0.3125 0.5625 0
0.34375 0.5625 0
0.3125 0.59375 0
0.34375 0.59375 0
0.34375 0.5625 0
0.375 0.5625 0
0.34375 0.59375 0
0.375 0.59375 0
0.3125 0.59375 0
0.34375 0.59375 0
0.3125 0.625 0
0.34375 0.625 0
0.34375 0.59375 0
0.375 0.59375 0
0.34375 0.625 0
0.375 0.625 0
0.375 0.5 0
0.40625 0.5 0
0.375 0.53125 0
0.40625 0.53125 0
0.40625 0.5 0
0.4375 0.5 0
0.40625 0.53125 0
0.4375 0.53125 0
0.375 0.53125 0
0.40625 0.53125 0
0.375 0.5625 0
0.40625 0.5625 0
0.40625 0.53125 0
0.4375 0.53125 0
0.40625 0.5625 0
0.4375 0.5625 0
0.4375 0.5 0
0.46875 0.5 0
0.4375 0.53125 0
0.46875 0.53125 0
0.46875 0.5 0
0.5 0.5 0
0.46875 0.53125 0
0.5 0.53125 0
0.4375 0.53125 0
0.46875 0.53125 0
0.4375 0.5625 0
0.46875 0.5625 0
0.46875 0.53125 0
0.5 0.53125 0
0.46875 0.5625 0
0.5 0.5625 0
0.375 0.5625 0
0.40625 0.5625 0
0.375 0.59375 0
0.40625 0.59375 0
0.40625 0.5625 0
0.4375 0.5625 0
0.40625 0.59375 0
0.4375 0.59375 0
0.375 0.59375 0
0.40625 0.59375 0
0.375 0.625 0
0.40625 0.625 0
0.40625 0.59375 0
0.4375 0.59375 0
0.40625 0.625 0
0.4375 0.625 0
0.4375 0.5625 0
0.46875 0.5625 0
0.4375 0.59375 0
0.46875 0.59375 0
0.46875 0.5625 0
0.5 0.5625 0
0.46875 0.59375 0
0.5 0.59375 0
0.4375 0.59375 0
0.46875 0.59375 0
0.4375 0.625 0
0.46875 0.625 0
0.46875 0.59375 0
0.5 0.59375 0
0.46875 0.625 0
0.5 0.625 0
0.25 0.625 0
0.28125 0.625 0
0.25 0.65625 0
0.28125 0.65625 0
0.28125 0.625 0
0.3125 0.625 0
0.28125 0.65625 0
0.3125 0.65625 0
0.25 0.65625 0
0.28125 0.65625 0
0.25 0.6875 0
0.28125 0.6875 0
0.28125 0.65625 0
0.3125 0.65625 0
0.28125 0.6875 0
0.3125 0.6875 0
0.3125 0.625 0
0.34375 0.625 0
0.3125 0.65625 0
0.34375 0.65625 0
0.34375 0.625 0
0.375 0.625 0
0.34375 0.65625 0
0.375 0.65625 0
0.3125 0.65625 0
0.34375 0.65625 0
0.3125 0.6875 0
0.34375 0.6875 0
0.34375 0.65625 0
0.375 0.65625 0
0.34375 0.6875 0
0.375 0.6875 0
0.25 0.6875 0
0.28125 0.6875 0
0.25 0.71875 0
0.28125 0.71875 0
0.28125 0.6875 0
0.3125 0.6875 0
0.28125 0.71875 0
0.3125 0.71875 0
0.25 0.71875 0
0.28125 0.71875 0
0.25 0.75 0
0.28125 0.75 0
0.28125 0.71875 0
0.3125 0.71875 0
0.28125 0.75 0
0.3125 0.75 0
0.3125 0.6875 0
0.34375 0.6875 0
0.3125 0.71875 0
0.34375 0.71875 0
0.34375 0.6875 0
0.375 0.6875 0
0.34375 0.71875 0
0.375 0.71875 0
0.3125 0.71875 0
0.34375 0.71875 0
0.3125 0.75 0
0.34375 0.75 0
0.34375 0.71875 0
0.375 0.71875 0
0.34375 0.75 0
0.375 0.75 0
0.375 0.625 0
0.40625 0.625 0
0.375 0.65625 0
0.40625 0.65625 0
0.40625 0.625 0
0.4375 0.625 0
0.40625 0.65625 0
0.4375 0.65625 0
0.375 0.65625 0
0.40625 0.65625 0
0.375 0.6875 0
0.40625 0.6875 0
0.40625 0.65625 0
0.4375 0.65625 0
0.40625 0.6875 0
0.4375 0.6875 0
0.4375 0.625 0
0.46875 0.625 0
0.4375 0.65625 0
0.46875 0.65625 0
0.46875 0.625 0
0.5 0.625 0
0.46875 0.65625 0
0.5 0.65625 0
0.4375 0.65625 0
0.46875 0.65625 0
0.4375 0.6875 0
0.46875 0.6875 0
0.46875 0.65625 0
0.5 0.65625 0
0.46875 0.6875 0
0.5 0.6875 0
0.375 0.6875 0
0.40625 0.6875 0
0.375 0.71875 0
0.40625 0.71875 0
0.40625 0.6875 0
0.4375 0.6875 0
0.40625 0.71875 0
0.4375 0.71875 0
0.375 0.71875 0
0.40625 0.71875 0
0.375 0.75 0
0.40625 0.75 0
0.40625 0.71875 0
0.4375 0.71875 0
0.40625 0.75 0
0.4375 0.75 0
0.4375 0.6875 0
0.46875 0.6875 0
0.4375 0.71875 0
0.46875 0.71875 0
0.46875 0.6875 0
0.5 0.6875 0
0.46875 0.71875 0
0.5 0.71875 0
0.4375 0.71875 0
0.46875 0.71875 0
0.4375 0.75 0
0.46875 0.75 0
0.46875 0.71875 0
0.5 0.71875 0
0.46875 0.75 0
0.5 0.75 0
0 0.75 0
0.03125 0.75 0
0 0.78125 0
0.03125 0.78125 0
0.03125 0.75 0
0.0625 0.75 0
0.03125 0.78125 0
0.0625 0.78125 0
0 0.78125 0
0.03125 0.78125 0
0 0.8125 0
0.03125 0.8125 0
0.03125 0.78125 0
0.0625 0.78125 0
0.03125 0.8125 0
0.0625 0.8125 0
0.0625 0.75 0
0.09375 0.75 0
0.0625 0.78125 0
0.09375 0.78125 0
0.09375 0.75 0
0.125 0.75 0
0.09375 0.78125 0
0.125 0.78125 0
0.0625 0.78125 0
0.09375 0.78125 0
0.0625 0.8125 0
0.09375 0.8125 0
0.09375 0.78125 0
0.125 0.78125 0
0.09375 0.8125 0
0.125 0.8125 0
0 0.8125 0
0.03125 0.8125 0
0 0.84375 0
0.03125 0.84375 0
0.03125 0.8125 0
0.0625 0.8125 0
0.03125 0.84375 0
0.0625 0.84375 0
0 0.84375 0
0.03125 0.84375 0
0 0.875 0
0.03125 0.875 0
0.03125 0.84375 0
0.0625 0.84375 0
0.03125 0.875 0
0.0625 0.875 0
0.0625 0.8125 0
0.09375 0.8125 0
0.0625 0.84375 0
0.09375 0.84375 0
0.09375 0.8125 0
0.125 0.8125 0
0.09375 0.84375 0
0.125 0.84375 0
0.0625 0.84375 0
0.09375 0.84375 0
0.0625 0.875 0
0.09375 0.875 0
0.09375 0.84375 0
0.125 0.84375 0
0.09375 0.875 0
0.125 0.875 0
0.125 0.75 0
0.15625 0.75 0
0.125 0.78125 0
0.15625 0.78125 0
0.15625 0.75 0
0.1875 0.75 0
0.15625 0.78125 0
0.1875 0.78125 0
0.125 0.78125 0
0.15625 0.78125 0
0.125 0.8125 0
0.15625 0.8125 0
0.15625 0.78125 0
0.1875 0.78125 0
0.15625 0.8125 0
0.1875 0.8125 0
0.1875 0.75 0
0.21875 0.75 0
0.1875 0.78125 0
0.21875 0.78125 0
0.21875 0.75 0
0.25 0.75 0
0.21875 0.78125 0
0.25 0.78125 0
0.1875 0.78125 0
0.21875 0.78125 0
0.1875 0.8125 0
0.21875 0.8125 0
0.21875 0.78125 0
0.25 0.78125 0
0.21875 0.8125 0
0.25 0.8125 0
0.125 0.8125 0
0.15625 0.8125 0
0.125 0.84375 0
0.15625 0.84375 0
0.15625 0.8125 0
[...]
POINT_DATA 4096
SCALARS x_dis double 1
LOOKUP_TABLE default
2.18264e-08 2.18261e-08 -4.23367e-08 -4.23365e-08 2.18261e-08 2.18253e-08 -4.23365e-08 -4.23359e-08 -4.23367e-08 -4.23365e-08 -4.43505e-08 -4.4347e-08 -4.23365e-08 -4.23359e-08 -4.4347e-08 -4.43375e-08 2.18253e-08 2.18242e-08 -4.23359e-08 -4.23353e-08 2.18242e-08 2.1823e-08 -4.23353e-08 -4.23349e-08 -4.23359e-08 -4.23353e-08 -4.43375e-08 -4.43245e-08 -4.23353e-08 -4.23349e-08 -4.43245e-08 -4.43111e-08 -4.43505e-08 -4.4347e-08 3.91358e-07 3.9137e-07 -4.4347e-08 -4.43375e-08 3.9137e-07 3.91404e-07 3.91358e-07 3.9137e-07 -4.46314e-07 -4.46284e-07 3.9137e-07 3.91404e-07 -4.46284e-07 -4.46199e-07 -4.43375e-08 -4.43245e-08 3.91404e-07 3.91453e-07 -4.43245e-08 -4.43111e-08 3.91453e-07 3.91507e-07 3.91404e-07 3.91453e-07 -4.46199e-07 -4.46075e-07 3.91453e-07 3.91507e-07 -4.46075e-07 -4.45936e-07 2.1823e-08 2.1822e-08 -4.23349e-08 -4.23349e-08 2.1822e-08 2.18212e-08 -4.23349e-08 -4.23351e-08 -4.23349e-08 -4.23349e-08 -4.43111e-08 -4.42998e-08 -4.23349e-08 -4.23351e-08 -4.42998e-08 -4.42917e-08 2.18212e-08 2.18206e-08 -4.23351e-08 -4.23354e-08 2.18206e-08 2.18204e-08 -4.23354e-08 -4.23356e-08 -4.23351e-08 -4.23354e-08 -4.42917e-08 -4.42867e-08 -4.23354e-08 -4.23356e-08 -4.42867e-08 -4.42839e-08 -4.43111e-08 -4.42998e-08 3.91507e-07 3.91556e-07 -4.42998e-08 -4.42917e-08 3.91556e-07 3.91595e-07 3.91507e-07 3.91556e-07 -4.45936e-07 -4.45802e-07 3.91556e-07 3.91595e-07 -4.45802e-07 -4.4569e-07 -4.42917e-08 -4.42867e-08 3.91595e-07 3.91621e-07 -4.42867e-08 -4.42839e-08 3.91621e-07 3.91636e-07 3.91595e-07 3.91621e-07 -4.4569e-07 -4.4561e-07 3.91621e-07 3.91636e-07 -4.4561e-07 -4.45559e-07 -4.46314e-07 -4.46284e-07 -1.80758e-06 -1.80752e-06 -4.46284e-07 -4.46199e-07 -1.80752e-06 -1.80733e-06 -1.80758e-06 -1.80752e-06 4.05828e-06 4.05842e-06 -1.80752e-06 -1.80733e-06 4.05842e-06 4.05879e-06 -4.46199e-07 -4.46075e-07 -1.80733e-06 -1.80707e-06 -4.46075e-07 -4.45936e-07 -1.80707e-06 -1.80678e-06 -1.80733e-06 -1.80707e-06 4.05879e-06 4.0593e-06 -1.80707e-06 -1.80678e-06 4.0593e-06 4.05986e-06 4.05828e-06 4.05842e-06 9.6758e-06 9.67605e-06 4.05842e-06 4.05879e-06 9.67605e-06 9.67673e-06 9.6758e-06 9.67605e-06 -1.44809e-05 -1.44804e-05 9.67605e-06 9.67673e-06 -1.44804e-05 -1.44792e-05 4.05879e-06 4.0593e-06 9.67673e-06 9.67766e-06 4.0593e-06 4.05986e-06 9.67766e-06 9.67866e-06 9.67673e-06 9.67766e-06 -1.44792e-05 -1.44777e-05 9.67766e-06 9.67866e-06 -1.44777e-05 -1.44761e-05 -4.45936e-07 -4.45802e-07 -1.80678e-06 -1.80649e-06 -4.45802e-07 -4.4569e-07 -1.80649e-06 -1.80625e-06 -1.80678e-06 -1.80649e-06 4.05986e-06 4.0604e-06 -1.80649e-06 -1.80625e-06 4.0604e-06 4.06085e-06 -4.4569e-07 -4.4561e-07 -1.80625e-06 -1.80606e-06 -4.4561e-07 -4.45559e-07 -1.80606e-06 -1.80593e-06 -1.80625e-06 -1.80606e-06 4.06085e-06 4.06121e-06 -1.80606e-06 -1.80593e-06 4.06121e-06 4.06147e-06 4.05986e-06 4.0604e-06 9.67866e-06 9.67958e-06 4.0604e-06 4.06085e-06 9.67958e-06 9.68036e-06 9.67866e-06 9.67958e-06 -1.44761e-05 -1.44746e-05 9.67958e-06 9.68036e-06 -1.44746e-05 -1.44734e-05 4.06085e-06 4.06121e-06 9.68036e-06 9.68095e-06 4.06121e-06 4.06147e-06 9.68095e-06 9.68138e-06 9.68036e-06 9.68095e-06 -1.44734e-05 -1.44725e-05 9.68095e-06 9.68138e-06 -1.44725e-05 -1.44718e-05 2.18204e-08 2.18203e-08 -4.23356e-08 -4.23356e-08 2.18203e-08 2.18202e-08 -4.23356e-08 -4.23372e-08 -4.23356e-08 -4.23356e-08 -4.42839e-08 -4.42828e-08 -4.23356e-08 -4.23372e-08 -4.42828e-08 -4.4284e-08 2.18202e-08 2.18199e-08 -4.23372e-08 -4.23394e-08 2.18199e-08 2.18204e-08 -4.23394e-08 -4.23223e-08 -4.23372e-08 -4.23394e-08 -4.4284e-08 -4.42847e-08 -4.23394e-08 -4.23223e-08 -4.42847e-08 -4.42732e-08 -4.42839e-08 -4.42828e-08 3.91636e-07 3.91644e-07 -4.42828e-08 -4.4284e-08 3.91644e-07 3.91647e-07 3.91636e-07 3.91644e-07 -4.45559e-07 -4.45531e-07 3.91644e-07 3.91647e-07 -4.45531e-07 -4.45517e-07 -4.4284e-08 -4.42847e-08 3.91647e-07 3.91647e-07 -4.42847e-08 -4.42732e-08 3.91647e-07 3.91654e-07 3.91647e-07 3.91647e-07 -4.45517e-07 -4.45514e-07 3.91647e-07 3.91654e-07 -4.45514e-07 -4.45512e-07 2.18204e-08 2.18215e-08 -4.23223e-08 -4.23022e-08 2.18215e-08 2.18183e-08 -4.23022e-08 -4.24404e-08 -4.23223e-08 -4.23022e-08 -4.42732e-08 -4.42661e-08 -4.23022e-08 -4.24404e-08 -4.42661e-08 -4.43083e-08 2.18183e-08 2.18185e-08 -4.24404e-08 -4.27787e-08 2.18185e-08 2.18329e-08 -4.27787e-08 -4.20234e-08 -4.24404e-08 -4.27787e-08 -4.43083e-08 -4.42669e-08 -4.27787e-08 -4.20234e-08 -4.42669e-08 -4.49551e-08 -4.42732e-08 -4.42661e-08 3.91654e-07 3.91657e-07 -4.42661e-08 -4.43083e-08 3.91657e-07 3.91639e-07 3.91654e-07 3.91657e-07 -4.45512e-07 -4.455e-07 3.91657e-07 3.91639e-07 -4.455e-07 -4.45495e-07 -4.43083e-08 -4.42669e-08 3.91639e-07 3.91607e-07 -4.42669e-08 -4.49551e-08 3.91607e-07 3.91903e-07 3.91639e-07 3.91607e-07 -4.45495e-07 -4.45516e-07 3.91607e-07 3.91903e-07 -4.45516e-07 -4.45568e-07 -4.45559e-07 -4.45531e-07 -1.80593e-06 -1.80586e-06 -4.45531e-07 -4.45517e-07 -1.80586e-06 -1.80582e-06 -1.80593e-06 -1.80586e-06 4.06147e-06 4.06162e-06 -1.80586e-06 -1.80582e-06 4.06162e-06 4.06171e-06 -4.45517e-07 -4.45514e-07 -1.80582e-06 -1.80581e-06 -4.45514e-07 -4.45512e-07 -1.80581e-06 -1.8058e-06 -1.80582e-06 -1.80581e-06 4.06171e-06 4.06175e-06 -1.80581e-06 -1.8058e-06 4.06175e-06 4.06176e-06 4.06147e-06 4.06162e-06 9.68138e-06 9.68167e-06 4.06162e-06 4.06171e-06 9.68167e-06 9.68183e-06 9.68138e-06 9.68167e-06 -1.44718e-05 -1.44714e-05 9.68167e-06 9.68183e-06 -1.44714e-05 -1.44711e-05 4.06171e-06 4.06175e-06 9.68183e-06 9.68191e-06 4.06175e-06 4.06176e-06 9.68191e-06 9.68194e-06 9.68183e-06 9.68191e-06 -1.44711e-05 -1.4471e-05 9.68191e-06 9.68194e-06 -1.4471e-05 -1.44709e-05 -4.45512e-07 -4.455e-07 -1.8058e-06 -1.8058e-06 -4.455e-07 -4.45495e-07 -1.8058e-06 -1.80579e-06 -1.8058e-06 -1.8058e-06 4.06176e-06 4.06176e-06 -1.8058e-06 -1.80579e-06 4.06176e-06 4.06176e-06 -4.45495e-07 -4.45516e-07 -1.80579e-06 -1.80578e-06 -4.45516e-07 -4.45568e-07 -1.80578e-06 -1.80579e-06 -1.80579e-06 -1.80578e-06 4.06176e-06 4.06176e-06 -1.80578e-06 -1.80579e-06 4.06176e-06 4.06177e-06 4.06176e-06 4.06176e-06 9.68194e-06 9.68195e-06 4.06176e-06 4.06176e-06 9.68195e-06 9.68195e-06 9.68194e-06 9.68195e-06 -1.44709e-05 -1.44709e-05 9.68195e-06 9.68195e-06 -1.44709e-05 -1.44709e-05 4.06176e-06 4.06176e-06 9.68195e-06 9.68195e-06 4.06176e-06 4.06177e-06 9.68195e-06 9.68195e-06 9.68195e-06 9.68195e-06 -1.44709e-05 -1.44709e-05 9.68195e-06 9.68195e-06 -1.44709e-05 -1.44709e-05 -1.44809e-05 -1.44804e-05 -8.07365e-05 -8.07352e-05 -1.44804e-05 -1.44792e-05 -8.07352e-05 -8.07331e-05 -8.07365e-05 -8.07352e-05 -0.000174935 -0.000174932 -8.07352e-05 -8.07331e-05 -0.000174932 -0.000174928 -1.44792e-05 -1.44777e-05 -8.07331e-05 -8.07307e-05 -1.44777e-05 -1.44761e-05 -8.07307e-05 -8.07284e-05 -8.07331e-05 -8.07307e-05 -0.000174928 -0.000174925 -8.07307e-05 -8.07284e-05 -0.000174925 -0.000174921 -0.000174935 -0.000174932 -0.000281004 -0.000280998 -0.000174932 -0.000174928 -0.000280998 -0.000280993 -0.000281004 -0.000280998 -0.000390218 -0.00039021 -0.000280998 -0.000280993 -0.00039021 -0.000390203 -0.000174928 -0.000174925 -0.000280993 -0.000280988 -0.000174925 -0.000174921 -0.000280988 -0.000280984 -0.000280993 -0.000280988 -0.000390203 -0.000390197 -0.000280988 -0.000280984 -0.000390197 -0.000390192 -1.44761e-05 -1.44746e-05 -8.07284e-05 -8.07262e-05 -1.44746e-05 -1.44734e-05 -8.07262e-05 -8.07244e-05 -8.07284e-05 -8.07262e-05 -0.000174921 -0.000174919 -8.07262e-05 -8.07244e-05 -0.000174919 -0.000174916 -1.44734e-05 -1.44725e-05 -8.07244e-05 -8.07231e-05 -1.44725e-05 -1.44718e-05 -8.07231e-05 -8.07222e-05 -8.07244e-05 -8.07231e-05 -0.000174916 -0.000174915 -8.07231e-05 -8.07222e-05 -0.000174915 -0.000174913 -0.000174921 -0.000174919 -0.000280984 -0.00028098 -0.000174919 -0.000174916 -0.00028098 -0.000280978 -0.000280984 -0.00028098 -0.000390192 -0.000390188 -0.00028098 -0.000280978 -0.000390188 -0.000390185 -0.000174916 -0.000174915 -0.000280978 -0.000280975 -0.000174915 -0.000174913 -0.000280975 -0.000280974 -0.000280978 -0.000280975 -0.000390185 -0.000390183 -0.000280975 -0.000280974 -0.000390183 -0.000390181 -0.000390218 -0.00039021 -0.000500117 -0.000500107 -0.00039021 -0.000390203 -0.000500107 -0.000500098 -0.000500117 -0.000500107 -0.000610067 -0.000610054 -0.000500107 -0.000500098 -0.000610054 -0.000610045 -0.000390203 -0.000390197 -0.000500098 -0.000500091 -0.000390197 -0.000390192 -0.000500091 -0.000500086 -0.000500098 -0.000500091 -0.000610045 -0.000610038 -0.000500091 -0.000500086 -0.000610038 -0.000610034 -0.000610067 -0.000610054 -0.000720047 -0.000720031 -0.000610054 -0.000610045 -0.000720031 -0.000720023 -0.000720047 -0.000720031 -0.00083 -0.00083 -0.000720031 -0.000720023 -0.00083 -0.00083 -0.000610045 -0.000610038 -0.000720023 -0.000720019 -0.000610038 -0.000610034 -0.000720019 -0.000720017 -0.000720023 -0.000720019 -0.00083 -0.00083 -0.000720019 -0.000720017 -0.00083 -0.00083 -0.000390192 -0.000390188 -0.000500086 -0.000500082 -0.000390188 -0.000390185 -0.000500082 -0.00050008 -0.000500086 -0.000500082 -0.000610034 -0.000610031 -0.000500082 -0.00050008 -0.000610031 -0.000610029 -0.000390185 -0.000390183 -0.00050008 -0.000500077 -0.000390183 -0.000390181 -0.000500077 -0.000500076 -0.00050008 -0.000500077 -0.000610029 -0.000610027 -0.000500077 -0.000500076 -0.000610027 -0.000610026 -0.000610034 -0.000610031 -0.000720017 -0.000720015 -0.000610031 -0.000610029 -0.000720015 -0.000720014 -0.000720017 -0.000720015 -0.00083 -0.00083 -0.000720015 -0.000720014 -0.00083 -0.00083 -0.000610029 -0.000610027 -0.000720014 -0.000720013 -0.000610027 -0.000610026 -0.000720013 -0.000720012 -0.000720014 -0.000720013 -0.00083 -0.00083 -0.000720013 -0.000720012 -0.00083 -0.00083 -1.44718e-05 -1.44714e-05 -8.07222e-05 -8.07216e-05 -1.44714e-05 -1.44711e-05 -8.07216e-05 -8.07212e-05 -8.07222e-05 -8.07216e-05 -0.000174913 -0.000174912 -8.07216e-05 -8.07212e-05 -0.000174912 -0.000174912 -1.44711e-05 -1.4471e-05 -8.07212e-05 -8.0721e-05 -1.4471e-05 -1.44709e-05 -8.0721e-05 -8.07209e-05 -8.07212e-05 -8.0721e-05 -0.000174912 -0.000174912 -8.0721e-05 -8.07209e-05 -0.000174912 -0.000174912 -0.000174913 -0.000174912 -0.000280974 -0.000280973 -0.000174912 -0.000174912 -0.000280973 -0.000280972 -0.000280974 -0.000280973 -0.000390181 -0.00039018 -0.000280973 -0.000280972 -0.00039018 -0.000390179 -0.000174912 -0.000174912 -0.000280972 -0.000280972 -0.000174912 -0.000174912 -0.000280972 -0.000280972 -0.000280972 -0.000280972 -0.000390179 -0.000390179 -0.000280972 -0.000280972 -0.000390179 -0.000390179 -1.44709e-05 -1.44709e-05 -8.07209e-05 -8.07208e-05 -1.44709e-05 -1.44709e-05 -8.07208e-05 -8.07208e-05 -8.07209e-05 -8.07208e-05 -0.000174912 -0.000174911 -8.07208e-05 -8.07208e-05 -0.000174911 -0.000174911 -1.44709e-05 -1.44709e-05 -8.07208e-05 -8.07208e-05 -1.44709e-05 -1.44709e-05 -8.07208e-05 -8.07208e-05 -8.07208e-05 -8.07208e-05 -0.000174911 -0.000174911 -8.07208e-05 -8.07208e-05 -0.000174911 -0.000174911 -0.000174912 -0.000174911 -0.000280972 -0.000280972 -0.000174911 -0.000174911 -0.000280972 -0.000280972 -0.000280972 -0.000280972 -0.000390179 -0.000390178 -0.000280972 -0.000280972 -0.000390178 -0.000390178 -0.000174911 -0.000174911 -0.000280972 -0.000280972 -0.000174911 -0.000174911 -0.000280972 -0.000280972 -0.000280972 -0.000280972 -0.000390178 -0.000390178 -0.000280972 -0.000280972 -0.000390178 -0.000390178 -0.000390181 -0.00039018 -0.000500076 -0.000500075 -0.00039018 -0.000390179 -0.000500075 -0.000500074 -0.000500076 -0.000500075 -0.000610026 -0.000610025 -0.000500075 -0.000500074 -0.000610025 -0.000610024 -0.000390179 -0.000390179 -0.000500074 -0.000500074 -0.000390179 -0.000390179 -0.000500074 -0.000500074 -0.000500074 -0.000500074 -0.000610024 -0.000610024 -0.000500074 -0.000500074 -0.000610024 -0.000610024 -0.000610026 -0.000610025 -0.000720012 -0.000720012 -0.000610025 -0.000610024 -0.000720012 -0.000720011 -0.000720012 -0.000720012 -0.00083 -0.00083 -0.000720012 -0.000720011 -0.00083 -0.00083 -0.000610024 -0.000610024 -0.000720011 -0.000720011 -0.000610024 -0.000610024 -0.000720011 -0.000720011 -0.000720011 -0.000720011 -0.00083 -0.00083 -0.000720011 -0.000720011 -0.00083 -0.00083 -0.000390179 -0.000390178 -0.000500074 -0.000500073 -0.000390178 -0.000390178 -0.000500073 -0.000500073 -0.000500074 -0.000500073 -0.000610024 -0.000610024 -0.000500073 -0.000500073 -0.000610024 -0.000610024 -0.000390178 -0.000390178 -0.000500073 -0.000500073 -0.000390178 -0.000390178 -0.000500073 -0.000500073 -0.000500073 -0.000500073 -0.000610024 -0.000610024 -0.000500073 -0.000500073 -0.000610024 -0.000610024 -0.000610024 -0.000610024 -0.000720011 -0.000720011 -0.000610024 -0.000610024 -0.000720011 -0.000720011 -0.000720011 -0.000720011 -0.00083 -0.00083 -0.000720011 -0.000720011 -0.00083 -0.00083 -0.000610024 -0.000610024 -0.000720011 -0.000720011 -0.000610024 -0.000610024 -0.000720011 -0.000720011 -0.000720011 -0.000720011 -0.00083 -0.00083 -0.000720011 -0.000720011 -0.00083 -0.00083 2.18329e-08 3.99e-08 -4.20234e-08 -4.37097e-08 3.99e-08 4.54112e-08 -4.37097e-08 -4.4405e-08 -4.20234e-08 -4.37097e-08 -4.49551e-08 -4.57492e-08 -4.37097e-08 -4.4405e-08 -4.57492e-08 -4.60622e-08 4.54112e-08 4.42309e-08 -4.4405e-08 -4.51589e-08 4.42309e-08 4.34633e-08 -4.51589e-08 -4.54813e-08 -4.4405e-08 -4.51589e-08 -4.60622e-08 -4.58723e-08 -4.51589e-08 -4.54813e-08 -4.58723e-08 -4.58686e-08 -4.49551e-08 -4.57492e-08 3.91903e-07 3.9246e-07 -4.57492e-08 -4.60622e-08 3.9246e-07 3.92802e-07 3.91903e-07 3.9246e-07 -4.45568e-07 -4.45656e-07 3.9246e-07 3.92802e-07 -4.45656e-07 -4.45778e-07 -4.60622e-08 -4.58723e-08 3.92802e-07 3.92752e-07 -4.58723e-08 -4.58686e-08 3.92752e-07 3.92684e-07 3.92802e-07 3.92752e-07 -4.45778e-07 -4.45837e-07 3.92752e-07 3.92684e-07 -4.45837e-07 -4.45814e-07 4.34633e-08 4.35421e-08 -4.54813e-08 -4.53666e-08 4.35421e-08 4.36603e-08 -4.53666e-08 -4.52905e-08 -4.54813e-08 -4.53666e-08 -4.58686e-08 -4.58756e-08 -4.53666e-08 -4.52905e-08 -4.58756e-08 -4.58553e-08 4.36603e-08 4.3657e-08 -4.52905e-08 -4.53081e-08 4.3657e-08 4.36366e-08 -4.53081e-08 -4.53197e-08 -4.52905e-08 -4.53081e-08 -4.58553e-08 -4.58544e-08 -4.53081e-08 -4.53197e-08 -4.58544e-08 -4.58579e-08 -4.58686e-08 -4.58756e-08 3.92684e-07 3.92694e-07 -4.58756e-08 -4.58553e-08 3.92694e-07 3.92714e-07 3.92684e-07 3.92694e-07 -4.45814e-07 -4.45785e-07 3.92694e-07 3.92714e-07 -4.45785e-07 -4.45782e-07 -4.58553e-08 -4.58544e-08 3.92714e-07 3.92716e-07 -4.58544e-08 -4.58579e-08 3.92716e-07 3.9272e-07 3.92714e-07 3.92716e-07 -4.45782e-07 -4.45774e-07 3.92716e-07 3.9272e-07 -4.45774e-07 -4.45746e-07 -4.45568e-07 -4.45656e-07 -1.80579e-06 -1.80583e-06 -4.45656e-07 -4.45778e-07 -1.80583e-06 -1.80584e-06 -1.80579e-06 -1.80583e-06 4.06177e-06 4.06179e-06 -1.80583e-06 -1.80584e-06 4.06179e-06 4.06181e-06 -4.45778e-07 -4.45837e-07 -1.80584e-06 -1.8058e-06 -4.45837e-07 -4.45814e-07 -1.8058e-06 -1.80578e-06 -1.80584e-06 -1.8058e-06 4.06181e-06 4.06181e-06 -1.8058e-06 -1.80578e-06 4.06181e-06 4.0618e-06 4.06177e-06 4.06179e-06 9.68195e-06 9.68194e-06 4.06179e-06 4.06181e-06 9.68194e-06 9.68194e-06 9.68195e-06 9.68194e-06 -1.44709e-05 -1.44709e-05 9.68194e-06 9.68194e-06 -1.44709e-05 -1.44709e-05 4.06181e-06 4.06181e-06 9.68194e-06 9.68194e-06 4.06181e-06 4.0618e-06 9.68194e-06 9.68195e-06 9.68194e-06 9.68194e-06 -1.44709e-05 -1.44709e-05 9.68194e-06 9.68195e-06 -1.44709e-05 -1.44709e-05 -4.45814e-07 -4.45785e-07 -1.80578e-06 -1.80578e-06 -4.45785e-07 -4.45782e-07 -1.80578e-06 -1.80577e-06 -1.80578e-06 -1.80578e-06 4.0618e-06 4.06181e-06 -1.80578e-06 -1.80577e-06 4.06181e-06 4.06185e-06 -4.45782e-07 -4.45774e-07 -1.80577e-06 -1.80574e-06 -4.45774e-07 -4.45746e-07 -1.80574e-06 -1.80566e-06 -1.80577e-06 -1.80574e-06 4.06185e-06 4.06194e-06 -1.80574e-06 -1.80566e-06 4.06194e-06 4.06209e-06 4.0618e-06 4.06181e-06 9.68195e-06 9.68198e-06 4.06181e-06 4.06185e-06 9.68198e-06 9.68206e-06 9.68195e-06 9.68198e-06 -1.44709e-05 -1.44708e-05 9.68198e-06 9.68206e-06 -1.44708e-05 -1.44707e-05 4.06185e-06 4.06194e-06 9.68206e-06 9.68222e-06 4.06194e-06 4.06209e-06 9.68222e-06 9.68251e-06 9.68206e-06 9.68222e-06 -1.44707e-05 -1.44704e-05 9.68222e-06 9.68251e-06 -1.44704e-05 -1.44699e-05 4.36366e-08 4.36371e-08 -4.53197e-08 -4.53172e-08 4.36371e-08 4.36391e-08 -4.53172e-08 -4.53159e-08 -4.53197e-08 -4.53172e-08 -4.58579e-08 -4.58556e-08 -4.53172e-08 -4.53159e-08 -4.58556e-08 -4.58498e-08 4.36391e-08 4.36371e-08 -4.53159e-08 -4.53162e-08 4.36371e-08 4.36345e-08 -4.53162e-08 -4.53159e-08 -4.53159e-08 -4.53162e-08 -4.58498e-08 -4.58416e-08 -4.53162e-08 -4.53159e-08 -4.58416e-08 -4.58305e-08 -4.58579e-08 -4.58556e-08 3.9272e-07 3.92736e-07 -4.58556e-08 -4.58498e-08 3.92736e-07 3.92762e-07 3.9272e-07 3.92736e-07 -4.45746e-07 -4.45695e-07 3.92736e-07 3.92762e-07 -4.45695e-07 -4.45614e-07 -4.58498e-08 -4.58416e-08 3.92762e-07 3.92801e-07 -4.58416e-08 -4.58305e-08 3.92801e-07 3.9285e-07 3.92762e-07 3.92801e-07 -4.45614e-07 -4.45503e-07 3.92801e-07 3.9285e-07 -4.45503e-07 -4.45369e-07 4.36345e-08 4.36322e-08 -4.53159e-08 -4.5315e-08 4.36322e-08 4.363e-08 -4.5315e-08 -4.53139e-08 -4.53159e-08 -4.5315e-08 -4.58305e-08 -4.58171e-08 -4.5315e-08 -4.53139e-08 -4.58171e-08 -4.5804e-08 4.363e-08 4.36283e-08 -4.53139e-08 -4.5313e-08 4.36283e-08 4.36277e-08 -4.5313e-08 -4.53127e-08 -4.53139e-08 -4.5313e-08 -4.5804e-08 -4.57944e-08 -4.5313e-08 -4.53127e-08 -4.57944e-08 -4.57909e-08 -4.58305e-08 -4.58171e-08 3.9285e-07 3.92903e-07 -4.58171e-08 -4.5804e-08 3.92903e-07 3.92952e-07 3.9285e-07 3.92903e-07 -4.45369e-07 -4.45229e-07 3.92903e-07 3.92952e-07 -4.45229e-07 -4.45106e-07 -4.5804e-08 -4.57944e-08 3.92952e-07 3.92987e-07 -4.57944e-08 -4.57909e-08 3.92987e-07 3.92999e-07 3.92952e-07 3.92987e-07 -4.45106e-07 -4.45021e-07 3.92987e-07 3.92999e-07 -4.45021e-07 -4.4499e-07 -4.45746e-07 -4.45695e-07 -1.80566e-06 -1.80554e-06 -4.45695e-07 -4.45614e-07 -1.80554e-06 -1.80535e-06 -1.80566e-06 -1.80554e-06 4.06209e-06 4.06235e-06 -1.80554e-06 -1.80535e-06 4.06235e-06 4.06271e-06 -4.45614e-07 -4.45503e-07 -1.80535e-06 -1.8051e-06 -4.45503e-07 -4.45369e-07 -1.8051e-06 -1.80482e-06 -1.80535e-06 -1.8051e-06 4.06271e-06 4.06316e-06 -1.8051e-06 -1.80482e-06 4.06316e-06 4.0637e-06 4.06209e-06 4.06235e-06 9.68251e-06 9.68294e-06 4.06235e-06 4.06271e-06 9.68294e-06 9.68353e-06 9.68251e-06 9.68294e-06 -1.44699e-05 -1.44693e-05 9.68294e-06 9.68353e-06 -1.44693e-05 -1.44684e-05 4.06271e-06 4.06316e-06 9.68353e-06 9.68431e-06 4.06316e-06 4.0637e-06 9.68431e-06 9.68523e-06 9.68353e-06 9.68431e-06 -1.44684e-05 -1.44671e-05 9.68431e-06 9.68523e-06 -1.44671e-05 -1.44657e-05 -4.45369e-07 -4.45229e-07 -1.80482e-06 -1.80452e-06 -4.45229e-07 -4.45106e-07 -1.80452e-06 -1.80426e-06 -1.80482e-06 -1.80452e-06 4.0637e-06 4.06426e-06 -1.80452e-06 -1.80426e-06 4.06426e-06 4.06477e-06 -4.45106e-07 -4.45021e-07 -1.80426e-06 -1.80408e-06 -4.45021e-07 -4.4499e-07 -1.80408e-06 -1.80401e-06 -1.80426e-06 -1.80408e-06 4.06477e-06 4.06514e-06 -1.80408e-06 -1.80401e-06 4.06514e-06 4.06528e-06 4.0637e-06 4.06426e-06 9.68523e-06 9.68623e-06 4.06426e-06 4.06477e-06 9.68623e-06 9.68716e-06 9.68523e-06 9.68623e-06 -1.44657e-05 -1.44641e-05 9.68623e-06 9.68716e-06 -1.44641e-05 -1.44625e-05 4.06477e-06 4.06514e-06 9.68716e-06 9.68784e-06 4.06514e-06 4.06528e-06 9.68784e-06 9.68809e-06 9.68716e-06 9.68784e-06 -1.44625e-05 -1.44613e-05 9.68784e-06 9.68809e-06 -1.44613e-05 -1.44608e-05 -1.44709e-05 -1.44709e-05 -8.07208e-05 -8.07208e-05 -1.44709e-05 -1.44709e-05 -8.07208e-05 -8.07208e-05 -8.07208e-05 -8.07208e-05 -0.000174911 -0.000174911 -8.07208e-05 -8.07208e-05 -0.000174911 -0.000174911 -1.44709e-05 -1.44709e-05 -8.07208e-05 -8.07208e-05 -1.44709e-05 -1.44709e-05 -8.07208e-05 -8.07208e-05 -8.07208e-05 -8.07208e-05 -0.000174911 -0.000174911 -8.07208e-05 -8.07208e-05 -0.000174911 -0.000174911 -0.000174911 -0.000174911 -0.000280972 -0.000280972 -0.000174911 -0.000174911 -0.000280972 -0.000280972 -0.000280972 -0.000280972 -0.000390178 -0.000390178 -0.000280972 -0.000280972 -0.000390178 -0.000390178 -0.000174911 -0.000174911 -0.000280972 -0.000280972 -0.0