# vtk DataFile Version 3.0
#This file was generated by the deal.II library on 2022/11/16 at 22:43:25
ASCII
DATASET UNSTRUCTURED_GRID

POINTS 4096 double
0 0.5 0
0.03125 0.5 0
0 0.53125 0
0.03125 0.53125 0
0.03125 0.5 0
0.0625 0.5 0
0.03125 0.53125 0
0.0625 0.53125 0
0 0.53125 0
0.03125 0.53125 0
0 0.5625 0
0.03125 0.5625 0
0.03125 0.53125 0
0.0625 0.53125 0
0.03125 0.5625 0
0.0625 0.5625 0
0.0625 0.5 0
0.09375 0.5 0
0.0625 0.53125 0
0.09375 0.53125 0
0.09375 0.5 0
0.125 0.5 0
0.09375 0.53125 0
0.125 0.53125 0
0.0625 0.53125 0
0.09375 0.53125 0
0.0625 0.5625 0
0.09375 0.5625 0
0.09375 0.53125 0
0.125 0.53125 0
0.09375 0.5625 0
0.125 0.5625 0
0 0.5625 0
0.03125 0.5625 0
0 0.59375 0
0.03125 0.59375 0
0.03125 0.5625 0
0.0625 0.5625 0
0.03125 0.59375 0
0.0625 0.59375 0
0 0.59375 0
0.03125 0.59375 0
0 0.625 0
0.03125 0.625 0
0.03125 0.59375 0
0.0625 0.59375 0
0.03125 0.625 0
0.0625 0.625 0
0.0625 0.5625 0
0.09375 0.5625 0
0.0625 0.59375 0
0.09375 0.59375 0
0.09375 0.5625 0
0.125 0.5625 0
0.09375 0.59375 0
0.125 0.59375 0
0.0625 0.59375 0
0.09375 0.59375 0
0.0625 0.625 0
0.09375 0.625 0
0.09375 0.59375 0
0.125 0.59375 0
0.09375 0.625 0
0.125 0.625 0
0.125 0.5 0
0.15625 0.5 0
0.125 0.53125 0
0.15625 0.53125 0
0.15625 0.5 0
0.1875 0.5 0
0.15625 0.53125 0
0.1875 0.53125 0
0.125 0.53125 0
0.15625 0.53125 0
0.125 0.5625 0
0.15625 0.5625 0
0.15625 0.53125 0
0.1875 0.53125 0
0.15625 0.5625 0
0.1875 0.5625 0
0.1875 0.5 0
0.21875 0.5 0
0.1875 0.53125 0
0.21875 0.53125 0
0.21875 0.5 0
0.25 0.5 0
0.21875 0.53125 0
0.25 0.53125 0
0.1875 0.53125 0
0.21875 0.53125 0
0.1875 0.5625 0
0.21875 0.5625 0
0.21875 0.53125 0
0.25 0.53125 0
0.21875 0.5625 0
0.25 0.5625 0
0.125 0.5625 0
0.15625 0.5625 0
0.125 0.59375 0
0.15625 0.59375 0
0.15625 0.5625 0
0.1875 0.5625 0
0.15625 0.59375 0
0.1875 0.59375 0
0.125 0.59375 0
0.15625 0.59375 0
0.125 0.625 0
0.15625 0.625 0
0.15625 0.59375 0
0.1875 0.59375 0
0.15625 0.625 0
0.1875 0.625 0
0.1875 0.5625 0
0.21875 0.5625 0
0.1875 0.59375 0
0.21875 0.59375 0
0.21875 0.5625 0
0.25 0.5625 0
0.21875 0.59375 0
0.25 0.59375 0
0.1875 0.59375 0
0.21875 0.59375 0
0.1875 0.625 0
0.21875 0.625 0
0.21875 0.59375 0
0.25 0.59375 0
0.21875 0.625 0
0.25 0.625 0
0 0.625 0
0.03125 0.625 0
0 0.65625 0
0.03125 0.65625 0
0.03125 0.625 0
0.0625 0.625 0
0.03125 0.65625 0
0.0625 0.65625 0
0 0.65625 0
0.03125 0.65625 0
0 0.6875 0
0.03125 0.6875 0
0.03125 0.65625 0
0.0625 0.65625 0
0.03125 0.6875 0
0.0625 0.6875 0
0.0625 0.625 0
0.09375 0.625 0
0.0625 0.65625 0
0.09375 0.65625 0
0.09375 0.625 0
0.125 0.625 0
0.09375 0.65625 0
0.125 0.65625 0
0.0625 0.65625 0
0.09375 0.65625 0
0.0625 0.6875 0
0.09375 0.6875 0
0.09375 0.65625 0
0.125 0.65625 0
0.09375 0.6875 0
0.125 0.6875 0
0 0.6875 0
0.03125 0.6875 0
0 0.71875 0
0.03125 0.71875 0
0.03125 0.6875 0
0.0625 0.6875 0
0.03125 0.71875 0
0.0625 0.71875 0
0 0.71875 0
0.03125 0.71875 0
0 0.75 0
0.03125 0.75 0
0.03125 0.71875 0
0.0625 0.71875 0
0.03125 0.75 0
0.0625 0.75 0
0.0625 0.6875 0
0.09375 0.6875 0
0.0625 0.71875 0
0.09375 0.71875 0
0.09375 0.6875 0
0.125 0.6875 0
0.09375 0.71875 0
0.125 0.71875 0
0.0625 0.71875 0
0.09375 0.71875 0
0.0625 0.75 0
0.09375 0.75 0
0.09375 0.71875 0
0.125 0.71875 0
0.09375 0.75 0
0.125 0.75 0
0.125 0.625 0
0.15625 0.625 0
0.125 0.65625 0
0.15625 0.65625 0
0.15625 0.625 0
0.1875 0.625 0
0.15625 0.65625 0
0.1875 0.65625 0
0.125 0.65625 0
0.15625 0.65625 0
0.125 0.6875 0
0.15625 0.6875 0
0.15625 0.65625 0
0.1875 0.65625 0
0.15625 0.6875 0
0.1875 0.6875 0
0.1875 0.625 0
0.21875 0.625 0
0.1875 0.65625 0
0.21875 0.65625 0
0.21875 0.625 0
0.25 0.625 0
0.21875 0.65625 0
0.25 0.65625 0
0.1875 0.65625 0
0.21875 0.65625 0
0.1875 0.6875 0
0.21875 0.6875 0
0.21875 0.65625 0
0.25 0.65625 0
0.21875 0.6875 0
0.25 0.6875 0
0.125 0.6875 0
0.15625 0.6875 0
0.125 0.71875 0
0.15625 0.71875 0
0.15625 0.6875 0
0.1875 0.6875 0
0.15625 0.71875 0
0.1875 0.71875 0
0.125 0.71875 0
0.15625 0.71875 0
0.125 0.75 0
0.15625 0.75 0
0.15625 0.71875 0
0.1875 0.71875 0
0.15625 0.75 0
0.1875 0.75 0
0.1875 0.6875 0
0.21875 0.6875 0
0.1875 0.71875 0
0.21875 0.71875 0
0.21875 0.6875 0
0.25 0.6875 0
0.21875 0.71875 0
0.25 0.71875 0
0.1875 0.71875 0
0.21875 0.71875 0
0.1875 0.75 0
0.21875 0.75 0
0.21875 0.71875 0
0.25 0.71875 0
0.21875 0.75 0
0.25 0.75 0
0.25 0.5 0
0.28125 0.5 0
0.25 0.53125 0
0.28125 0.53125 0
0.28125 0.5 0
0.3125 0.5 0
0.28125 0.53125 0
0.3125 0.53125 0
0.25 0.53125 0
0.28125 0.53125 0
0.25 0.5625 0
0.28125 0.5625 0
0.28125 0.53125 0
0.3125 0.53125 0
0.28125 0.5625 0
0.3125 0.5625 0
0.3125 0.5 0
0.34375 0.5 0
0.3125 0.53125 0
0.34375 0.53125 0
0.34375 0.5 0
0.375 0.5 0
0.34375 0.53125 0
0.375 0.53125 0
0.3125 0.53125 0
0.34375 0.53125 0
0.3125 0.5625 0
0.34375 0.5625 0
0.34375 0.53125 0
0.375 0.53125 0
0.34375 0.5625 0
0.375 0.5625 0
0.25 0.5625 0
0.28125 0.5625 0
0.25 0.59375 0
0.28125 0.59375 0
0.28125 0.5625 0
0.3125 0.5625 0
0.28125 0.59375 0
0.3125 0.59375 0
0.25 0.59375 0
0.28125 0.59375 0
0.25 0.625 0
0.28125 0.625 0
0.28125 0.59375 0
0.3125 0.59375 0
0.28125 0.625 0
0.3125 0.625 0
0.3125 0.5625 0
0.34375 0.5625 0
0.3125 0.59375 0
0.34375 0.59375 0
0.34375 0.5625 0
0.375 0.5625 0
0.34375 0.59375 0
0.375 0.59375 0
0.3125 0.59375 0
0.34375 0.59375 0
0.3125 0.625 0
0.34375 0.625 0
0.34375 0.59375 0
0.375 0.59375 0
0.34375 0.625 0
0.375 0.625 0
0.375 0.5 0
0.40625 0.5 0
0.375 0.53125 0
0.40625 0.53125 0
0.40625 0.5 0
0.4375 0.5 0
0.40625 0.53125 0
0.4375 0.53125 0
0.375 0.53125 0
0.40625 0.53125 0
0.375 0.5625 0
0.40625 0.5625 0
0.40625 0.53125 0
0.4375 0.53125 0
0.40625 0.5625 0
0.4375 0.5625 0
0.4375 0.5 0
0.46875 0.5 0
0.4375 0.53125 0
0.46875 0.53125 0
0.46875 0.5 0
0.5 0.5 0
0.46875 0.53125 0
0.5 0.53125 0
0.4375 0.53125 0
0.46875 0.53125 0
0.4375 0.5625 0
0.46875 0.5625 0
0.46875 0.53125 0
0.5 0.53125 0
0.46875 0.5625 0
0.5 0.5625 0
0.375 0.5625 0
0.40625 0.5625 0
0.375 0.59375 0
0.40625 0.59375 0
0.40625 0.5625 0
0.4375 0.5625 0
0.40625 0.59375 0
0.4375 0.59375 0
0.375 0.59375 0
0.40625 0.59375 0
0.375 0.625 0
0.40625 0.625 0
0.40625 0.59375 0
0.4375 0.59375 0
0.40625 0.625 0
0.4375 0.625 0
0.4375 0.5625 0
0.46875 0.5625 0
0.4375 0.59375 0
0.46875 0.59375 0
0.46875 0.5625 0
0.5 0.5625 0
0.46875 0.59375 0
0.5 0.59375 0
0.4375 0.59375 0
0.46875 0.59375 0
0.4375 0.625 0
0.46875 0.625 0
0.46875 0.59375 0
0.5 0.59375 0
0.46875 0.625 0
0.5 0.625 0
0.25 0.625 0
0.28125 0.625 0
0.25 0.65625 0
0.28125 0.65625 0
0.28125 0.625 0
0.3125 0.625 0
0.28125 0.65625 0
0.3125 0.65625 0
0.25 0.65625 0
0.28125 0.65625 0
0.25 0.6875 0
0.28125 0.6875 0
0.28125 0.65625 0
0.3125 0.65625 0
0.28125 0.6875 0
0.3125 0.6875 0
0.3125 0.625 0
0.34375 0.625 0
0.3125 0.65625 0
0.34375 0.65625 0
0.34375 0.625 0
0.375 0.625 0
0.34375 0.65625 0
0.375 0.65625 0
0.3125 0.65625 0
0.34375 0.65625 0
0.3125 0.6875 0
0.34375 0.6875 0
0.34375 0.65625 0
0.375 0.65625 0
0.34375 0.6875 0
0.375 0.6875 0
0.25 0.6875 0
0.28125 0.6875 0
0.25 0.71875 0
0.28125 0.71875 0
0.28125 0.6875 0
0.3125 0.6875 0
0.28125 0.71875 0
0.3125 0.71875 0
0.25 0.71875 0
0.28125 0.71875 0
0.25 0.75 0
0.28125 0.75 0
0.28125 0.71875 0
0.3125 0.71875 0
0.28125 0.75 0
0.3125 0.75 0
0.3125 0.6875 0
0.34375 0.6875 0
0.3125 0.71875 0
0.34375 0.71875 0
0.34375 0.6875 0
0.375 0.6875 0
0.34375 0.71875 0
0.375 0.71875 0
0.3125 0.71875 0
0.34375 0.71875 0
0.3125 0.75 0
0.34375 0.75 0
0.34375 0.71875 0
0.375 0.71875 0
0.34375 0.75 0
0.375 0.75 0
0.375 0.625 0
0.40625 0.625 0
0.375 0.65625 0
0.40625 0.65625 0
0.40625 0.625 0
0.4375 0.625 0
0.40625 0.65625 0
0.4375 0.65625 0
0.375 0.65625 0
0.40625 0.65625 0
0.375 0.6875 0
0.40625 0.6875 0
0.40625 0.65625 0
0.4375 0.65625 0
0.40625 0.6875 0
0.4375 0.6875 0
0.4375 0.625 0
0.46875 0.625 0
0.4375 0.65625 0
0.46875 0.65625 0
0.46875 0.625 0
0.5 0.625 0
0.46875 0.65625 0
0.5 0.65625 0
0.4375 0.65625 0
0.46875 0.65625 0
0.4375 0.6875 0
0.46875 0.6875 0
0.46875 0.65625 0
0.5 0.65625 0
0.46875 0.6875 0
0.5 0.6875 0
0.375 0.6875 0
0.40625 0.6875 0
0.375 0.71875 0
0.40625 0.71875 0
0.40625 0.6875 0
0.4375 0.6875 0
0.40625 0.71875 0
0.4375 0.71875 0
0.375 0.71875 0
0.40625 0.71875 0
0.375 0.75 0
0.40625 0.75 0
0.40625 0.71875 0
0.4375 0.71875 0
0.40625 0.75 0
0.4375 0.75 0
0.4375 0.6875 0
0.46875 0.6875 0
0.4375 0.71875 0
0.46875 0.71875 0
0.46875 0.6875 0
0.5 0.6875 0
0.46875 0.71875 0
0.5 0.71875 0
0.4375 0.71875 0
0.46875 0.71875 0
0.4375 0.75 0
0.46875 0.75 0
0.46875 0.71875 0
0.5 0.71875 0
0.46875 0.75 0
0.5 0.75 0
0 0.75 0
0.03125 0.75 0
0 0.78125 0
0.03125 0.78125 0
0.03125 0.75 0
0.0625 0.75 0
0.03125 0.78125 0
0.0625 0.78125 0
0 0.78125 0
0.03125 0.78125 0
0 0.8125 0
0.03125 0.8125 0
0.03125 0.78125 0
0.0625 0.78125 0
0.03125 0.8125 0
0.0625 0.8125 0
0.0625 0.75 0
0.09375 0.75 0
0.0625 0.78125 0
0.09375 0.78125 0
0.09375 0.75 0
0.125 0.75 0
0.09375 0.78125 0
0.125 0.78125 0
0.0625 0.78125 0
0.09375 0.78125 0
0.0625 0.8125 0
0.09375 0.8125 0
0.09375 0.78125 0
0.125 0.78125 0
0.09375 0.8125 0
0.125 0.8125 0
0 0.8125 0
0.03125 0.8125 0
0 0.84375 0
0.03125 0.84375 0
0.03125 0.8125 0
0.0625 0.8125 0
0.03125 0.84375 0
0.0625 0.84375 0
0 0.84375 0
0.03125 0.84375 0
0 0.875 0
0.03125 0.875 0
0.03125 0.84375 0
0.0625 0.84375 0
0.03125 0.875 0
0.0625 0.875 0
0.0625 0.8125 0
0.09375 0.8125 0
0.0625 0.84375 0
0.09375 0.84375 0
0.09375 0.8125 0
0.125 0.8125 0
0.09375 0.84375 0
0.125 0.84375 0
0.0625 0.84375 0
0.09375 0.84375 0
0.0625 0.875 0
0.09375 0.875 0
0.09375 0.84375 0
0.125 0.84375 0
0.09375 0.875 0
0.125 0.875 0
0.125 0.75 0
0.15625 0.75 0
0.125 0.78125 0
0.15625 0.78125 0
0.15625 0.75 0
0.1875 0.75 0
0.15625 0.78125 0
0.1875 0.78125 0
0.125 0.78125 0
0.15625 0.78125 0
0.125 0.8125 0
0.15625 0.8125 0
0.15625 0.78125 0
0.1875 0.78125 0
0.15625 0.8125 0
0.1875 0.8125 0
0.1875 0.75 0
0.21875 0.75 0
0.1875 0.78125 0
0.21875 0.78125 0
0.21875 0.75 0
0.25 0.75 0
0.21875 0.78125 0
0.25 0.78125 0
0.1875 0.78125 0
0.21875 0.78125 0
0.1875 0.8125 0
0.21875 0.8125 0
0.21875 0.78125 0
0.25 0.78125 0
0.21875 0.8125 0
0.25 0.8125 0
0.125 0.8125 0
0.15625 0.8125 0
0.125 0.84375 0
0.15625 0.84375 0
0.15625 0.8125 0
[...]
POINT_DATA 4096
SCALARS x_dis double 1
LOOKUP_TABLE default
-0.00076084 -0.000760712 -0.000870796 -0.000870682 -0.000760712 -0.000760611 -0.000870682 -0.000870634 -0.000870796 -0.000870682 -0.000980756 -0.000980653 -0.000870682 -0.000870634 -0.000980653 -0.000980652 -0.000760611 -0.000760537 -0.000870634 -0.000870675 -0.000760537 -0.000760493 -0.000870675 -0.000870847 -0.000870634 -0.000870675 -0.000980652 -0.000980789 -0.000870675 -0.000870847 -0.000980789 -0.00098114 -0.000980756 -0.000980653 -0.00109071 -0.00109061 -0.000980653 -0.000980652 -0.00109061 -0.00109064 -0.00109071 -0.00109061 -0.00120066 -0.00120056 -0.00109061 -0.00109064 -0.00120056 -0.0012006 -0.000980652 -0.000980789 -0.00109064 -0.00109084 -0.000980789 -0.00098114 -0.00109084 -0.00109131 -0.00109064 -0.00109084 -0.0012006 -0.00120082 -0.00109084 -0.00109131 -0.00120082 -0.00120134 -0.000760493 -0.000760479 -0.000870847 -0.000871227 -0.000760479 -0.000760492 -0.000871227 -0.000871936 -0.000870847 -0.000871227 -0.00098114 -0.000981843 -0.000871227 -0.000871936 -0.000981843 -0.000983115 -0.000760492 -0.000760523 -0.000871936 -0.000873127 -0.000760523 -0.000760557 -0.000873127 -0.000874974 -0.000871936 -0.000873127 -0.000983115 -0.000985243 -0.000873127 -0.000874974 -0.000985243 -0.000988549 -0.00098114 -0.000981843 -0.00109131 -0.00109222 -0.000981843 -0.000983115 -0.00109222 -0.00109383 -0.00109131 -0.00109222 -0.00120134 -0.00120232 -0.00109222 -0.00109383 -0.00120232 -0.00120404 -0.000983115 -0.000985243 -0.00109383 -0.00109651 -0.000985243 -0.000988549 -0.00109651 -0.00110067 -0.00109383 -0.00109651 -0.00120404 -0.00120685 -0.00109651 -0.00110067 -0.00120685 -0.00121118 -0.00120066 -0.00120056 -0.00131062 -0.00131051 -0.00120056 -0.0012006 -0.00131051 -0.00131053 -0.00131062 -0.00131051 -0.00142059 -0.00142047 -0.00131051 -0.00131053 -0.00142047 -0.00142046 -0.0012006 -0.00120082 -0.00131053 -0.00131074 -0.00120082 -0.00120134 -0.00131074 -0.00131124 -0.00131053 -0.00131074 -0.00142046 -0.00142061 -0.00131074 -0.00131124 -0.00142061 -0.00142104 -0.00142059 -0.00142047 -0.00153058 -0.00153045 -0.00142047 -0.00142046 -0.00153045 -0.00153039 -0.00153058 -0.00153045 -0.00164059 -0.00164044 -0.00153045 -0.00153039 -0.00164044 -0.00164034 -0.00142046 -0.00142061 -0.00153039 -0.00153047 -0.00142061 -0.00142104 -0.00153047 -0.00153079 -0.00153039 -0.00153047 -0.00164034 -0.00164034 -0.00153047 -0.00153079 -0.00164034 -0.00164053 -0.00120134 -0.00120232 -0.00131124 -0.00131218 -0.00120232 -0.00120404 -0.00131218 -0.0013138 -0.00131124 -0.00131218 -0.00142104 -0.00142186 -0.00131218 -0.0013138 -0.00142186 -0.00142326 -0.00120404 -0.00120685 -0.0013138 -0.0013164 -0.00120685 -0.00121118 -0.0013164 -0.00132035 -0.0013138 -0.0013164 -0.00142326 -0.00142545 -0.0013164 -0.00132035 -0.00142545 -0.00142869 -0.00142104 -0.00142186 -0.00153079 -0.00153144 -0.00142186 -0.00142326 -0.00153144 -0.00153256 -0.00153079 -0.00153144 -0.00164053 -0.00164099 -0.00153144 -0.00153256 -0.00164099 -0.00164182 -0.00142326 -0.00142545 -0.00153256 -0.00153429 -0.00142545 -0.00142869 -0.00153429 -0.00153675 -0.00153256 -0.00153429 -0.00164182 -0.00164311 -0.00153429 -0.00153675 -0.00164311 -0.0016449 -0.000760557 -0.000760578 -0.000874974 -0.000877677 -0.000760578 -0.000760574 -0.000877677 -0.000881509 -0.000874974 -0.000877677 -0.000988549 -0.000993395 -0.000877677 -0.000881509 -0.000993395 -0.00100023 -0.000760574 -0.000760539 -0.000881509 -0.000886906 -0.000760539 -0.000760468 -0.000886906 -0.000894633 -0.000881509 -0.000886906 -0.00100023 -0.00100971 -0.000886906 -0.000894633 -0.00100971 -0.00102288 -0.000988549 -0.000993395 -0.00110067 -0.00110673 -0.000993395 -0.00100023 -0.00110673 -0.00111518 -0.00110067 -0.00110673 -0.00121118 -0.00121743 -0.00110673 -0.00111518 -0.00121743 -0.001226 -0.00100023 -0.00100971 -0.00111518 -0.00112662 -0.00100971 -0.00102288 -0.00112662 -0.00114185 -0.00111518 -0.00112662 -0.001226 -0.00123728 -0.00112662 -0.00114185 -0.00123728 -0.00125162 -0.000760468 -0.000760339 -0.000894633 -0.000906124 -0.000760339 -0.000760081 -0.000906124 -0.000924465 -0.000894633 -0.000906124 -0.00102288 -0.00104143 -0.000906124 -0.000924465 -0.00104143 -0.00106788 -0.000760081 -0.000759332 -0.000924465 -0.000956605 -0.000759332 -0.000758226 -0.000956605 -0.00102639 -0.000924465 -0.000956605 -0.00106788 -0.00110606 -0.000956605 -0.00102639 -0.00110606 -0.00114635 -0.00102288 -0.00104143 -0.00114185 -0.00116178 -0.00104143 -0.00106788 -0.00116178 -0.00118715 -0.00114185 -0.00116178 -0.00125162 -0.00126914 -0.00116178 -0.00118715 -0.00126914 -0.00128919 -0.00106788 -0.00110606 -0.00118715 -0.00121592 -0.00110606 -0.00114635 -0.00121592 -0.00124543 -0.00118715 -0.00121592 -0.00128919 -0.0013103 -0.00121592 -0.00124543 -0.0013103 -0.00133037 -0.00121118 -0.00121743 -0.00132035 -0.00132594 -0.00121743 -0.001226 -0.00132594 -0.00133345 -0.00132035 -0.00132594 -0.00142869 -0.00143316 -0.00132594 -0.00133345 -0.00143316 -0.00143896 -0.001226 -0.00123728 -0.00133345 -0.00134302 -0.00123728 -0.00125162 -0.00134302 -0.00135463 -0.00133345 -0.00134302 -0.00143896 -0.00144605 -0.00134302 -0.00135463 -0.00144605 -0.00145419 -0.00142869 -0.00143316 -0.00153675 -0.00154003 -0.00143316 -0.00143896 -0.00154003 -0.00154406 -0.00153675 -0.00154003 -0.0016449 -0.00164718 -0.00154003 -0.00154406 -0.00164718 -0.0016498 -0.00143896 -0.00144605 -0.00154406 -0.00154866 -0.00144605 -0.00145419 -0.00154866 -0.00155352 -0.00154406 -0.00154866 -0.0016498 -0.0016525 -0.00154866 -0.00155352 -0.0016525 -0.00165491 -0.00125162 -0.00126914 -0.00135463 -0.00136795 -0.00126914 -0.00128919 -0.00136795 -0.00138222 -0.00135463 -0.00136795 -0.00145419 -0.00146295 -0.00136795 -0.00138222 -0.00146295 -0.00147165 -0.00128919 -0.0013103 -0.00138222 -0.00139624 -0.0013103 -0.00133037 -0.00139624 -0.00140896 -0.00138222 -0.00139624 -0.00147165 -0.0014795 -0.00139624 -0.00140896 -0.0014795 -0.00148592 -0.00145419 -0.00146295 -0.00155352 -0.00155819 -0.00146295 -0.00147165 -0.00155819 -0.00156215 -0.00155352 -0.00155819 -0.00165491 -0.00165663 -0.00155819 -0.00156215 -0.00165663 -0.00165727 -0.00147165 -0.0014795 -0.00156215 -0.00156493 -0.0014795 -0.00148592 -0.00156493 -0.00156625 -0.00156215 -0.00156493 -0.00165727 -0.00165655 -0.00156493 -0.00156625 -0.00165655 -0.00165444 -0.00164059 -0.00164044 -0.00175061 -0.00175045 -0.00164044 -0.00164034 -0.00175045 -0.00175032 -0.00175061 -0.00175045 -0.00186064 -0.00186048 -0.00175045 -0.00175032 -0.00186048 -0.00186032 -0.00164034 -0.00164034 -0.00175032 -0.00175025 -0.00164034 -0.00164053 -0.00175025 -0.00175031 -0.00175032 -0.00175025 -0.00186032 -0.00186019 -0.00175025 -0.00175031 -0.00186019 -0.00186016 -0.00186064 -0.00186048 -0.00197067 -0.0019705 -0.00186048 -0.00186032 -0.0019705 -0.00197033 -0.00197067 -0.0019705 -0.00208069 -0.00208052 -0.0019705 -0.00197033 -0.00208052 -0.00208034 -0.00186032 -0.00186019 -0.00197033 -0.00197017 -0.00186019 -0.00186016 -0.00197017 -0.00197008 -0.00197033 -0.00197017 -0.00208034 -0.00208018 -0.00197017 -0.00197008 -0.00208018 -0.00208005 -0.00164053 -0.00164099 -0.00175031 -0.00175059 -0.00164099 -0.00164182 -0.00175059 -0.00175114 -0.00175031 -0.00175059 -0.00186016 -0.00186027 -0.00175059 -0.00175114 -0.00186027 -0.00186059 -0.00164182 -0.00164311 -0.00175114 -0.00175203 -0.00164311 -0.0016449 -0.00175203 -0.00175328 -0.00175114 -0.00175203 -0.00186059 -0.00186114 -0.00175203 -0.00175328 -0.00186114 -0.00186195 -0.00186016 -0.00186027 -0.00197008 -0.00197008 -0.00186027 -0.00186059 -0.00197008 -0.00197021 -0.00197008 -0.00197008 -0.00208005 -0.00207998 -0.00197008 -0.00197021 -0.00207998 -0.00208 -0.00186059 -0.00186114 -0.00197021 -0.0019705 -0.00186114 -0.00186195 -0.0019705 -0.00197096 -0.00197021 -0.0019705 -0.00208 -0.00208012 -0.0019705 -0.00197096 -0.00208012 -0.00208033 -0.00208069 -0.00208052 -0.00219067 -0.00219051 -0.00208052 -0.00208034 -0.00219051 -0.00219035 -0.00219067 -0.00219051 -0.0023006 -0.00230045 -0.00219051 -0.00219035 -0.00230045 -0.0023003 -0.00208034 -0.00208018 -0.00219035 -0.00219019 -0.00208018 -0.00208005 -0.00219019 -0.00219006 -0.00219035 -0.00219019 -0.0023003 -0.00230017 -0.00219019 -0.00219006 -0.00230017 -0.00230005 -0.0023006 -0.00230045 -0.00241044 -0.00241028 -0.00230045 -0.0023003 -0.00241028 -0.00241018 -0.00241044 -0.00241028 -0.00252 -0.00252 -0.00241028 -0.00241018 -0.00252 -0.00252 -0.0023003 -0.00230017 -0.00241018 -0.0024101 -0.00230017 -0.00230005 -0.0024101 -0.00241002 -0.00241018 -0.0024101 -0.00252 -0.00252 -0.0024101 -0.00241002 -0.00252 -0.00252 -0.00208005 -0.00207998 -0.00219006 -0.00218996 -0.00207998 -0.00208 -0.00218996 -0.00218991 -0.00219006 -0.00218996 -0.00230005 -0.00229995 -0.00218996 -0.00218991 -0.00229995 -0.00229987 -0.00208 -0.00208012 -0.00218991 -0.00218992 -0.00208012 -0.00208033 -0.00218992 -0.00218998 -0.00218991 -0.00218992 -0.00229987 -0.00229982 -0.00218992 -0.00218998 -0.00229982 -0.00229982 -0.00230005 -0.00229995 -0.00241002 -0.00240995 -0.00229995 -0.00229987 -0.00240995 -0.00240989 -0.00241002 -0.00240995 -0.00252 -0.00252 -0.00240995 -0.00240989 -0.00252 -0.00252 -0.00229987 -0.00229982 -0.00240989 -0.00240985 -0.00229982 -0.00229982 -0.00240985 -0.00240983 -0.00240989 -0.00240985 -0.00252 -0.00252 -0.00240985 -0.00240983 -0.00252 -0.00252 -0.0016449 -0.00164718 -0.00175328 -0.00175484 -0.00164718 -0.0016498 -0.00175484 -0.00175654 -0.00175328 -0.00175484 -0.00186195 -0.00186298 -0.00175484 -0.00175654 -0.00186298 -0.00186412 -0.0016498 -0.0016525 -0.00175654 -0.0017581 -0.0016525 -0.00165491 -0.0017581 -0.00175918 -0.00175654 -0.0017581 -0.00186412 -0.00186513 -0.0017581 -0.00175918 -0.00186513 -0.00186574 -0.00186195 -0.00186298 -0.00197096 -0.00197157 -0.00186298 -0.00186412 -0.00197157 -0.00197229 -0.00197096 -0.00197157 -0.00208033 -0.00208063 -0.00197157 -0.00197229 -0.00208063 -0.002081 -0.00186412 -0.00186513 -0.00197229 -0.00197299 -0.00186513 -0.00186574 -0.00197299 -0.00197348 -0.00197229 -0.00197299 -0.002081 -0.00208139 -0.00197299 -0.00197348 -0.00208139 -0.00208174 -0.00165491 -0.00165663 -0.00175918 -0.00175939 -0.00165663 -0.00165727 -0.00175939 -0.00175845 -0.00175918 -0.00175939 -0.00186574 -0.00186564 -0.00175939 -0.00175845 -0.00186564 -0.00186459 -0.00165727 -0.00165655 -0.00175845 -0.0017562 -0.00165655 -0.00165444 -0.0017562 -0.00175273 -0.00175845 -0.0017562 -0.00186459 -0.00186252 -0.0017562 -0.00175273 -0.00186252 -0.00185954 -0.00186574 -0.00186564 -0.00197348 -0.00197357 -0.00186564 -0.00186459 -0.00197357 -0.00197309 -0.00197348 -0.00197357 -0.00208174 -0.00208193 -0.00197357 -0.00197309 -0.00208193 -0.00208189 -0.00186459 -0.00186252 -0.00197309 -0.00197199 -0.00186252 -0.00185954 -0.00197199 -0.00197035 -0.00197309 -0.00197199 -0.00208189 -0.00208158 -0.00197199 -0.00197035 -0.00208158 -0.00208103 -0.00208033 -0.00208063 -0.00218998 -0.00219009 -0.00208063 -0.002081 -0.00219009 -0.00219023 -0.00218998 -0.00219009 -0.00229982 -0.00229984 -0.00219009 -0.00219023 -0.00229984 -0.00229989 -0.002081 -0.00208139 -0.00219023 -0.00219038 -0.00208139 -0.00208174 -0.00219038 -0.00219052 -0.00219023 -0.00219038 -0.00229989 -0.00229994 -0.00219038 -0.00219052 -0.00229994 -0.00229997 -0.00229982 -0.00229984 -0.00240983 -0.00240984 -0.00229984 -0.00229989 -0.00240984 -0.00240987 -0.00240983 -0.00240984 -0.00252 -0.00252 -0.00240984 -0.00240987 -0.00252 -0.00252 -0.00229989 -0.00229994 -0.00240987 -0.00240991 -0.00229994 -0.00229997 -0.00240991 -0.00240993 -0.00240987 -0.00240991 -0.00252 -0.00252 -0.00240991 -0.00240993 -0.00252 -0.00252 -0.00208174 -0.00208193 -0.00219052 -0.00219063 -0.00208193 -0.00208189 -0.00219063 -0.00219067 -0.00219052 -0.00219063 -0.00229997 -0.00229999 -0.00219063 -0.00219067 -0.00229999 -0.00229997 -0.00208189 -0.00208158 -0.00219067 -0.00219063 -0.00208158 -0.00208103 -0.00219063 -0.00219051 -0.00219067 -0.00219063 -0.00229997 -0.00229992 -0.00219063 -0.00219051 -0.00229992 -0.00229985 -0.00229997 -0.00229999 -0.00240993 -0.00240993 -0.00229999 -0.00229997 -0.00240993 -0.0024099 -0.00240993 -0.00240993 -0.00252 -0.00252 -0.00240993 -0.0024099 -0.00252 -0.00252 -0.00229997 -0.00229992 -0.0024099 -0.00240985 -0.00229992 -0.00229985 -0.00240985 -0.00240977 -0.0024099 -0.00240985 -0.00252 -0.00252 -0.00240985 -0.00240977 -0.00252 -0.00252 -0.000758226 -0.000990054 -0.00102639 -0.00108282 -0.000990054 -0.00112834 -0.00108282 -0.00116012 -0.00102639 -0.00108282 -0.00114635 -0.00118829 -0.00108282 -0.00116012 -0.00118829 -0.00122851 -0.00112834 -0.00122235 -0.00116012 -0.00123258 -0.00122235 -0.00129272 -0.00123258 -0.00129384 -0.00116012 -0.00123258 -0.00122851 -0.00127426 -0.00123258 -0.00129384 -0.00127426 -0.00131934 -0.00114635 -0.00118829 -0.00124543 -0.0012725 -0.00118829 -0.00122851 -0.0012725 -0.00129959 -0.00124543 -0.0012725 -0.00133037 -0.00134873 -0.0012725 -0.00129959 -0.00134873 -0.00136612 -0.00122851 -0.00127426 -0.00129959 -0.00132817 -0.00127426 -0.00131934 -0.00132817 -0.00135858 -0.00129959 -0.00132817 -0.00136612 -0.00138423 -0.00132817 -0.00135858 -0.00138423 -0.00140357 -0.00129272 -0.00134721 -0.00129384 -0.0013444 -0.00134721 -0.00138952 -0.0013444 -0.00138577 -0.00129384 -0.0013444 -0.00131934 -0.00136032 -0.0013444 -0.00138577 -0.00136032 -0.00139614 -0.00138952 -0.00142203 -0.00138577 -0.00141938 -0.00142203 -0.00144685 -0.00141938 -0.00144649 -0.00138577 -0.00141938 -0.00139614 -0.00142676 -0.00141938 -0.00144649 -0.00142676 -0.00145241 -0.00131934 -0.00136032 -0.00135858 -0.00138859 -0.00136032 -0.00139614 -0.00138859 -0.00141658 -0.00135858 -0.00138859 -0.00140357 -0.00142366 -0.00138859 -0.00141658 -0.00142366 -0.00144344 -0.00139614 -0.00142676 -0.00141658 -0.00144169 -0.00142676 -0.00145241 -0.00144169 -0.00146342 -0.00141658 -0.00144169 -0.00144344 -0.00146201 -0.00144169 -0.00146342 -0.00146201 -0.00147863 -0.00133037 -0.00134873 -0.00140896 -0.00142004 -0.00134873 -0.00136612 -0.00142004 -0.00143013 -0.00140896 -0.00142004 -0.00148592 -0.00149086 -0.00142004 -0.00143013 -0.00149086 -0.00149481 -0.00136612 -0.00138423 -0.00143013 -0.00144026 -0.00138423 -0.00140357 -0.00144026 -0.00145119 -0.00143013 -0.00144026 -0.00149481 -0.00149858 -0.00144026 -0.00145119 -0.00149858 -0.00150289 -0.00148592 -0.00149086 -0.00156625 -0.00156622 -0.00149086 -0.00149481 -0.00156622 -0.00156532 -0.00156625 -0.00156622 -0.00165444 -0.00165116 -0.00156622 -0.00156532 -0.00165116 -0.00164722 -0.00149481 -0.00149858 -0.00156532 -0.00156426 -0.00149858 -0.00150289 -0.00156426 -0.00156377 -0.00156532 -0.00156426 -0.00164722 -0.00164333 -0.00156426 -0.00156377 -0.00164333 -0.00164018 -0.00140357 -0.00142366 -0.00145119 -0.001463 -0.00142366 -0.00144344 -0.001463 -0.0014753 -0.00145119 -0.001463 -0.00150289 -0.00150814 -0.001463 -0.0014753 -0.00150814 -0.00151433 -0.00144344 -0.00146201 -0.0014753 -0.00148749 -0.00146201 -0.00147863 -0.00148749 -0.00149891 -0.0014753 -0.00148749 -0.00151433 -0.00152119 -0.00148749 -0.00149891 -0.00152119 -0.00152823 -0.00150289 -0.00150814 -0.00156377 -0.00156438 -0.00150814 -0.00151433 -0.00156438 -0.00156631 -0.00156377 -0.00156438 -0.00164018 -0.00163834 -0.00156438 -0.00156631 -0.00163834 -0.00163808 -0.00151433 -0.00152119 -0.00156631 -0.00156947 -0.00152119 -0.00152823 -0.00156947 -0.00157348 -0.00156631 -0.00156947 -0.00163808 -0.00163934 -0.00156947 -0.00157348 -0.00163934 -0.00164171 -0.00144685 -0.00146615 -0.00144649 -0.00146815 -0.00146615 -0.00148175 -0.00146815 -0.00148519 -0.00144649 -0.00146815 -0.00145241 -0.00147331 -0.00146815 -0.00148519 -0.00147331 -0.00148968 -0.00148175 -0.0014947 -0.00148519 -0.00149827 -0.0014947 -0.00150518 -0.00149827 -0.00150791 -0.00148519 -0.00149827 -0.00148968 -0.00150185 -0.00149827 -0.00150791 -0.00150185 -0.0015104 -0.00145241 -0.00147331 -0.00146342 -0.00148145 -0.00147331 -0.00148968 -0.00148145 -0.00149561 -0.00146342 -0.00148145 -0.00147863 -0.00149271 -0.00148145 -0.00149561 -0.00149271 -0.0015039 -0.00148968 -0.00150185 -0.00149561 -0.00150604 -0.00150185 -0.0015104 -0.00150604 -0.00151322 -0.00149561 -0.00150604 -0.0015039 -0.0015122 -0.00150604 -0.00151322 -0.0015122 -0.00151796 -0.00150518 -0.00151296 -0.00150791 -0.00151462 -0.00151296 -0.00151806 -0.00151462 -0.00151891 -0.00150791 -0.00151462 -0.0015104 -0.00151605 -0.00151462 -0.00151891 -0.00151605 -0.00151951 -0.00151806 -0.00152085 -0.00151891 -0.00152125 -0.00152085 -0.00152173 -0.00152125 -0.00152199 -0.00151891 -0.00152125 -0.00151951 -0.00152135 -0.00152125 -0.00152199 -0.00152135 -0.00152192 -0.0015104 -0.00151605 -0.00151322 -0.00151788 -0.00151605 -0.00151951 -0.00151788 -0.0015207 -0.00151322 -0.00151788 -0.00151796 -0.00152177 -0.00151788 -0.0015207 -0.00152177 -0.00152416 -0.00151951 -0.00152135 -0.0015207 -0.00152221 -0.00152135 -0.00152192 -0.00152221 -0.00152268 -0.0015207 -0.00152221 -0.00152416 -0.0015255 -0.00152221 -0.00152268 -0.0015255 -0.00152593 -0.00147863 -0.00149271 -0.00149891 -0.00150895 -0.00149271 -0.0015039 -0.00150895 -0.00151716 -0.00149891 -0.00150895 -0.00152823 -0.00153488 -0.00150895 -0.00151716 -0.00153488 -0.00154065 -0.0015039 -0.0015122 -0.00151716 -0.00152343 -0.0015122 -0.00151796 -0.00152343 -0.00152793 -0.00151716 -0.00152343 -0.00154065 -0.00154529 -0.00152343 -0.00152793 -0.00154529 -0.00154876 -0.00152823 -0.00153488 -0.00157348 -0.00157779 -0.00153488 -0.00154065 -0.00157779 -0.00158184 -0.00157348 -0.00157779 -0.00164171 -0.00164464 -0.00157779 -0.00158184 -0.00164464 -0.00164754 -0.00154065 -0.00154529 -0.00158184 -0.00158526 -0.00154529 -0.00154876 -0.00158526 -0.00158789 -0.00158184 -0.00158526 -0.00164754 -0.00165001 -0.00158526 -0.00158789 -0.00165001 -0.00165187 -0.00151796 -0.00152177 -0.00152793 -0.00153103 -0.00152177 -0.00152416 -0.00153103 -0.00153308 -0.00152793 -0.00153103 -0.00154876 -0.00155124 -0.00153103 -0.00153308 -0.00155124 -0.00155288 -0.00152416 -0.0015255 -0.00153308 -0.00153426 -0.0015255 -0.00152593 -0.00153426 -0.00153464 -0.00153308 -0.00153426 -0.00155288 -0.00155382 -0.00153426 -0.00153464 -0.00155382 -0.0015541 -0.00154876 -0.00155124 -0.00158789 -0.00158974 -0.00155124 -0.00155288 -0.00158974 -0.00159091 -0.00158789 -0.00158974 -0.00165187 -0.0016531 -0.00158974 -0.00159091 -0.0016531 -0.0016538 -0.00155288 -0.00155382 -0.00159091 -0.00159152 -0.00155382 -0.0015541 -0.00159152 -0.00159168 -0.00159091 -0.00159152 -0.0016538 -0.00165411 -0.00159152 -0.00159168 -0.00165411 -0.00165413 -0.00165444 -0.00165116 -0.00175273 -0.00174835 -0.00165116 -0.00164722 -0.00174835 -0.00174358 -0.00175273 -0.00174835 -0.00185954 -0.00185595 -0.00174835 -0.00174358 -0.00185595 -0.00185221 -0.00164722 -0.00164333 -0.00174358 -0.00173909 -0.00164333 -0.00164018 -0.00173909 -0.00173549 -0.00174358 -0.00173909 -0.00185221 -0.00184886 -0.00173909 -0.00173549 -0.00184886 -0.00184637 -0.00185954 -0.00185595 -0.00197035 -0.00196838 -0.00185595 -0.00185221 -0.00196838 -0.0019664 -0.00197035 -0.00196838 -0.00208103 -0.00208036 -0.00196838 -0.0019664 -0.00208036 -0.00207971 -0.00185221 -0.00184886 -0.0019664 -0.00196476 -0.00184886 -0.00184637 -0.00196476 -0.00196371 -0.0019664 -0.00196476 -0.00207971 -0.00207924 -0.00196476 -0.00196371 -0.00207924 -0.00207906 -0.00164018 -0.00163834 -0.00173549 -0.00173327 -0.00163834 -0.00163808 -0.00173327 -0.00173259 -0.00173549 -0.00173327 -0.00184637 -0.00184501 -0.00173327 -0.00173259 -0.00184501 -0.00184484 -0.00163808 -0.00163934 -0.00173259 -0.00173332 -0.00163934 -0.00164171 -0.00173332 -0.00173501 -0.00173259 -0.00173332 -0.00184484 -0.00184561 -0.00173332 -0.00173501 -0.00184561 -0.00184695 -0.00184637 -0.00184501 -0.00196371 -0.00196336 -0.00184501 -0.00184484 -0.00196336 -0.00196366 -0.00196371 -0.00196336 -0.00207906 -0.00207916 -0.00196336 -0.00196366 -0.00207916 -0.0020795 -0.00184484 -0.00184561 -0.00196366 -0.0019644 -0.00184561 -0.00184695 -0.0019644 -0.00196532 -0.00196366 -0.0019644 -0.0020795 -0.00207996 -0.0019644 -0.00196532 -0.00207996 -0.00208043 -0.00208103 -0.00208036 -0.00219051 -0.00219036 -0.00208036 -0.00207971 -0.00219036 -0