# vtk DataFile Version 3.0
#This file was generated by the deal.II library on 2022/11/16 at 21:43:46
ASCII
DATASET UNSTRUCTURED_GRID

POINTS 4096 double
0 0.5 0
0.03125 0.5 0
0 0.53125 0
0.03125 0.53125 0
0.03125 0.5 0
0.0625 0.5 0
0.03125 0.53125 0
0.0625 0.53125 0
0 0.53125 0
0.03125 0.53125 0
0 0.5625 0
0.03125 0.5625 0
0.03125 0.53125 0
0.0625 0.53125 0
0.03125 0.5625 0
0.0625 0.5625 0
0.0625 0.5 0
0.09375 0.5 0
0.0625 0.53125 0
0.09375 0.53125 0
0.09375 0.5 0
0.125 0.5 0
0.09375 0.53125 0
0.125 0.53125 0
0.0625 0.53125 0
0.09375 0.53125 0
0.0625 0.5625 0
0.09375 0.5625 0
0.09375 0.53125 0
0.125 0.53125 0
0.09375 0.5625 0
0.125 0.5625 0
0 0.5625 0
0.03125 0.5625 0
0 0.59375 0
0.03125 0.59375 0
0.03125 0.5625 0
0.0625 0.5625 0
0.03125 0.59375 0
0.0625 0.59375 0
0 0.59375 0
0.03125 0.59375 0
0 0.625 0
0.03125 0.625 0
0.03125 0.59375 0
0.0625 0.59375 0
0.03125 0.625 0
0.0625 0.625 0
0.0625 0.5625 0
0.09375 0.5625 0
0.0625 0.59375 0
0.09375 0.59375 0
0.09375 0.5625 0
0.125 0.5625 0
0.09375 0.59375 0
0.125 0.59375 0
0.0625 0.59375 0
0.09375 0.59375 0
0.0625 0.625 0
0.09375 0.625 0
0.09375 0.59375 0
0.125 0.59375 0
0.09375 0.625 0
0.125 0.625 0
0.125 0.5 0
0.15625 0.5 0
0.125 0.53125 0
0.15625 0.53125 0
0.15625 0.5 0
0.1875 0.5 0
0.15625 0.53125 0
0.1875 0.53125 0
0.125 0.53125 0
0.15625 0.53125 0
0.125 0.5625 0
0.15625 0.5625 0
0.15625 0.53125 0
0.1875 0.53125 0
0.15625 0.5625 0
0.1875 0.5625 0
0.1875 0.5 0
0.21875 0.5 0
0.1875 0.53125 0
0.21875 0.53125 0
0.21875 0.5 0
0.25 0.5 0
0.21875 0.53125 0
0.25 0.53125 0
0.1875 0.53125 0
0.21875 0.53125 0
0.1875 0.5625 0
0.21875 0.5625 0
0.21875 0.53125 0
0.25 0.53125 0
0.21875 0.5625 0
0.25 0.5625 0
0.125 0.5625 0
0.15625 0.5625 0
0.125 0.59375 0
0.15625 0.59375 0
0.15625 0.5625 0
0.1875 0.5625 0
0.15625 0.59375 0
0.1875 0.59375 0
0.125 0.59375 0
0.15625 0.59375 0
0.125 0.625 0
0.15625 0.625 0
0.15625 0.59375 0
0.1875 0.59375 0
0.15625 0.625 0
0.1875 0.625 0
0.1875 0.5625 0
0.21875 0.5625 0
0.1875 0.59375 0
0.21875 0.59375 0
0.21875 0.5625 0
0.25 0.5625 0
0.21875 0.59375 0
0.25 0.59375 0
0.1875 0.59375 0
0.21875 0.59375 0
0.1875 0.625 0
0.21875 0.625 0
0.21875 0.59375 0
0.25 0.59375 0
0.21875 0.625 0
0.25 0.625 0
0 0.625 0
0.03125 0.625 0
0 0.65625 0
0.03125 0.65625 0
0.03125 0.625 0
0.0625 0.625 0
0.03125 0.65625 0
0.0625 0.65625 0
0 0.65625 0
0.03125 0.65625 0
0 0.6875 0
0.03125 0.6875 0
0.03125 0.65625 0
0.0625 0.65625 0
0.03125 0.6875 0
0.0625 0.6875 0
0.0625 0.625 0
0.09375 0.625 0
0.0625 0.65625 0
0.09375 0.65625 0
0.09375 0.625 0
0.125 0.625 0
0.09375 0.65625 0
0.125 0.65625 0
0.0625 0.65625 0
0.09375 0.65625 0
0.0625 0.6875 0
0.09375 0.6875 0
0.09375 0.65625 0
0.125 0.65625 0
0.09375 0.6875 0
0.125 0.6875 0
0 0.6875 0
0.03125 0.6875 0
0 0.71875 0
0.03125 0.71875 0
0.03125 0.6875 0
0.0625 0.6875 0
0.03125 0.71875 0
0.0625 0.71875 0
0 0.71875 0
0.03125 0.71875 0
0 0.75 0
0.03125 0.75 0
0.03125 0.71875 0
0.0625 0.71875 0
0.03125 0.75 0
0.0625 0.75 0
0.0625 0.6875 0
0.09375 0.6875 0
0.0625 0.71875 0
0.09375 0.71875 0
0.09375 0.6875 0
0.125 0.6875 0
0.09375 0.71875 0
0.125 0.71875 0
0.0625 0.71875 0
0.09375 0.71875 0
0.0625 0.75 0
0.09375 0.75 0
0.09375 0.71875 0
0.125 0.71875 0
0.09375 0.75 0
0.125 0.75 0
0.125 0.625 0
0.15625 0.625 0
0.125 0.65625 0
0.15625 0.65625 0
0.15625 0.625 0
0.1875 0.625 0
0.15625 0.65625 0
0.1875 0.65625 0
0.125 0.65625 0
0.15625 0.65625 0
0.125 0.6875 0
0.15625 0.6875 0
0.15625 0.65625 0
0.1875 0.65625 0
0.15625 0.6875 0
0.1875 0.6875 0
0.1875 0.625 0
0.21875 0.625 0
0.1875 0.65625 0
0.21875 0.65625 0
0.21875 0.625 0
0.25 0.625 0
0.21875 0.65625 0
0.25 0.65625 0
0.1875 0.65625 0
0.21875 0.65625 0
0.1875 0.6875 0
0.21875 0.6875 0
0.21875 0.65625 0
0.25 0.65625 0
0.21875 0.6875 0
0.25 0.6875 0
0.125 0.6875 0
0.15625 0.6875 0
0.125 0.71875 0
0.15625 0.71875 0
0.15625 0.6875 0
0.1875 0.6875 0
0.15625 0.71875 0
0.1875 0.71875 0
0.125 0.71875 0
0.15625 0.71875 0
0.125 0.75 0
0.15625 0.75 0
0.15625 0.71875 0
0.1875 0.71875 0
0.15625 0.75 0
0.1875 0.75 0
0.1875 0.6875 0
0.21875 0.6875 0
0.1875 0.71875 0
0.21875 0.71875 0
0.21875 0.6875 0
0.25 0.6875 0
0.21875 0.71875 0
0.25 0.71875 0
0.1875 0.71875 0
0.21875 0.71875 0
0.1875 0.75 0
0.21875 0.75 0
0.21875 0.71875 0
0.25 0.71875 0
0.21875 0.75 0
0.25 0.75 0
0.25 0.5 0
0.28125 0.5 0
0.25 0.53125 0
0.28125 0.53125 0
0.28125 0.5 0
0.3125 0.5 0
0.28125 0.53125 0
0.3125 0.53125 0
0.25 0.53125 0
0.28125 0.53125 0
0.25 0.5625 0
0.28125 0.5625 0
0.28125 0.53125 0
0.3125 0.53125 0
0.28125 0.5625 0
0.3125 0.5625 0
0.3125 0.5 0
0.34375 0.5 0
0.3125 0.53125 0
0.34375 0.53125 0
0.34375 0.5 0
0.375 0.5 0
0.34375 0.53125 0
0.375 0.53125 0
0.3125 0.53125 0
0.34375 0.53125 0
0.3125 0.5625 0
0.34375 0.5625 0
0.34375 0.53125 0
0.375 0.53125 0
0.34375 0.5625 0
0.375 0.5625 0
0.25 0.5625 0
0.28125 0.5625 0
0.25 0.59375 0
0.28125 0.59375 0
0.28125 0.5625 0
0.3125 0.5625 0
0.28125 0.59375 0
0.3125 0.59375 0
0.25 0.59375 0
0.28125 0.59375 0
0.25 0.625 0
0.28125 0.625 0
0.28125 0.59375 0
0.3125 0.59375 0
0.28125 0.625 0
0.3125 0.625 0
0.3125 0.5625 0
0.34375 0.5625 0
0.3125 0.59375 0
0.34375 0.59375 0
0.34375 0.5625 0
0.375 0.5625 0
0.34375 0.59375 0
0.375 0.59375 0
0.3125 0.59375 0
0.34375 0.59375 0
0.3125 0.625 0
0.34375 0.625 0
0.34375 0.59375 0
0.375 0.59375 0
0.34375 0.625 0
0.375 0.625 0
0.375 0.5 0
0.40625 0.5 0
0.375 0.53125 0
0.40625 0.53125 0
0.40625 0.5 0
0.4375 0.5 0
0.40625 0.53125 0
0.4375 0.53125 0
0.375 0.53125 0
0.40625 0.53125 0
0.375 0.5625 0
0.40625 0.5625 0
0.40625 0.53125 0
0.4375 0.53125 0
0.40625 0.5625 0
0.4375 0.5625 0
0.4375 0.5 0
0.46875 0.5 0
0.4375 0.53125 0
0.46875 0.53125 0
0.46875 0.5 0
0.5 0.5 0
0.46875 0.53125 0
0.5 0.53125 0
0.4375 0.53125 0
0.46875 0.53125 0
0.4375 0.5625 0
0.46875 0.5625 0
0.46875 0.53125 0
0.5 0.53125 0
0.46875 0.5625 0
0.5 0.5625 0
0.375 0.5625 0
0.40625 0.5625 0
0.375 0.59375 0
0.40625 0.59375 0
0.40625 0.5625 0
0.4375 0.5625 0
0.40625 0.59375 0
0.4375 0.59375 0
0.375 0.59375 0
0.40625 0.59375 0
0.375 0.625 0
0.40625 0.625 0
0.40625 0.59375 0
0.4375 0.59375 0
0.40625 0.625 0
0.4375 0.625 0
0.4375 0.5625 0
0.46875 0.5625 0
0.4375 0.59375 0
0.46875 0.59375 0
0.46875 0.5625 0
0.5 0.5625 0
0.46875 0.59375 0
0.5 0.59375 0
0.4375 0.59375 0
0.46875 0.59375 0
0.4375 0.625 0
0.46875 0.625 0
0.46875 0.59375 0
0.5 0.59375 0
0.46875 0.625 0
0.5 0.625 0
0.25 0.625 0
0.28125 0.625 0
0.25 0.65625 0
0.28125 0.65625 0
0.28125 0.625 0
0.3125 0.625 0
0.28125 0.65625 0
0.3125 0.65625 0
0.25 0.65625 0
0.28125 0.65625 0
0.25 0.6875 0
0.28125 0.6875 0
0.28125 0.65625 0
0.3125 0.65625 0
0.28125 0.6875 0
0.3125 0.6875 0
0.3125 0.625 0
0.34375 0.625 0
0.3125 0.65625 0
0.34375 0.65625 0
0.34375 0.625 0
0.375 0.625 0
0.34375 0.65625 0
0.375 0.65625 0
0.3125 0.65625 0
0.34375 0.65625 0
0.3125 0.6875 0
0.34375 0.6875 0
0.34375 0.65625 0
0.375 0.65625 0
0.34375 0.6875 0
0.375 0.6875 0
0.25 0.6875 0
0.28125 0.6875 0
0.25 0.71875 0
0.28125 0.71875 0
0.28125 0.6875 0
0.3125 0.6875 0
0.28125 0.71875 0
0.3125 0.71875 0
0.25 0.71875 0
0.28125 0.71875 0
0.25 0.75 0
0.28125 0.75 0
0.28125 0.71875 0
0.3125 0.71875 0
0.28125 0.75 0
0.3125 0.75 0
0.3125 0.6875 0
0.34375 0.6875 0
0.3125 0.71875 0
0.34375 0.71875 0
0.34375 0.6875 0
0.375 0.6875 0
0.34375 0.71875 0
0.375 0.71875 0
0.3125 0.71875 0
0.34375 0.71875 0
0.3125 0.75 0
0.34375 0.75 0
0.34375 0.71875 0
0.375 0.71875 0
0.34375 0.75 0
0.375 0.75 0
0.375 0.625 0
0.40625 0.625 0
0.375 0.65625 0
0.40625 0.65625 0
0.40625 0.625 0
0.4375 0.625 0
0.40625 0.65625 0
0.4375 0.65625 0
0.375 0.65625 0
0.40625 0.65625 0
0.375 0.6875 0
0.40625 0.6875 0
0.40625 0.65625 0
0.4375 0.65625 0
0.40625 0.6875 0
0.4375 0.6875 0
0.4375 0.625 0
0.46875 0.625 0
0.4375 0.65625 0
0.46875 0.65625 0
0.46875 0.625 0
0.5 0.625 0
0.46875 0.65625 0
0.5 0.65625 0
0.4375 0.65625 0
0.46875 0.65625 0
0.4375 0.6875 0
0.46875 0.6875 0
0.46875 0.65625 0
0.5 0.65625 0
0.46875 0.6875 0
0.5 0.6875 0
0.375 0.6875 0
0.40625 0.6875 0
0.375 0.71875 0
0.40625 0.71875 0
0.40625 0.6875 0
0.4375 0.6875 0
0.40625 0.71875 0
0.4375 0.71875 0
0.375 0.71875 0
0.40625 0.71875 0
0.375 0.75 0
0.40625 0.75 0
0.40625 0.71875 0
0.4375 0.71875 0
0.40625 0.75 0
0.4375 0.75 0
0.4375 0.6875 0
0.46875 0.6875 0
0.4375 0.71875 0
0.46875 0.71875 0
0.46875 0.6875 0
0.5 0.6875 0
0.46875 0.71875 0
0.5 0.71875 0
0.4375 0.71875 0
0.46875 0.71875 0
0.4375 0.75 0
0.46875 0.75 0
0.46875 0.71875 0
0.5 0.71875 0
0.46875 0.75 0
0.5 0.75 0
0 0.75 0
0.03125 0.75 0
0 0.78125 0
0.03125 0.78125 0
0.03125 0.75 0
0.0625 0.75 0
0.03125 0.78125 0
0.0625 0.78125 0
0 0.78125 0
0.03125 0.78125 0
0 0.8125 0
0.03125 0.8125 0
0.03125 0.78125 0
0.0625 0.78125 0
0.03125 0.8125 0
0.0625 0.8125 0
0.0625 0.75 0
0.09375 0.75 0
0.0625 0.78125 0
0.09375 0.78125 0
0.09375 0.75 0
0.125 0.75 0
0.09375 0.78125 0
0.125 0.78125 0
0.0625 0.78125 0
0.09375 0.78125 0
0.0625 0.8125 0
0.09375 0.8125 0
0.09375 0.78125 0
0.125 0.78125 0
0.09375 0.8125 0
0.125 0.8125 0
0 0.8125 0
0.03125 0.8125 0
0 0.84375 0
0.03125 0.84375 0
0.03125 0.8125 0
0.0625 0.8125 0
0.03125 0.84375 0
0.0625 0.84375 0
0 0.84375 0
0.03125 0.84375 0
0 0.875 0
0.03125 0.875 0
0.03125 0.84375 0
0.0625 0.84375 0
0.03125 0.875 0
0.0625 0.875 0
0.0625 0.8125 0
0.09375 0.8125 0
0.0625 0.84375 0
0.09375 0.84375 0
0.09375 0.8125 0
0.125 0.8125 0
0.09375 0.84375 0
0.125 0.84375 0
0.0625 0.84375 0
0.09375 0.84375 0
0.0625 0.875 0
0.09375 0.875 0
0.09375 0.84375 0
0.125 0.84375 0
0.09375 0.875 0
0.125 0.875 0
0.125 0.75 0
0.15625 0.75 0
0.125 0.78125 0
0.15625 0.78125 0
0.15625 0.75 0
0.1875 0.75 0
0.15625 0.78125 0
0.1875 0.78125 0
0.125 0.78125 0
0.15625 0.78125 0
0.125 0.8125 0
0.15625 0.8125 0
0.15625 0.78125 0
0.1875 0.78125 0
0.15625 0.8125 0
0.1875 0.8125 0
0.1875 0.75 0
0.21875 0.75 0
0.1875 0.78125 0
0.21875 0.78125 0
0.21875 0.75 0
0.25 0.75 0
0.21875 0.78125 0
0.25 0.78125 0
0.1875 0.78125 0
0.21875 0.78125 0
0.1875 0.8125 0
0.21875 0.8125 0
0.21875 0.78125 0
0.25 0.78125 0
0.21875 0.8125 0
0.25 0.8125 0
0.125 0.8125 0
0.15625 0.8125 0
0.125 0.84375 0
0.15625 0.84375 0
0.15625 0.8125 0
[...]
POINT_DATA 4096
SCALARS x_dis double 1
LOOKUP_TABLE default
-0.000372717 -0.000372693 -0.000481119 -0.000481092 -0.000372693 -0.000372679 -0.000481092 -0.000481077 -0.000481119 -0.000481092 -0.00059063 -0.000590601 -0.000481092 -0.000481077 -0.000590601 -0.000590585 -0.000372679 -0.00037267 -0.000481077 -0.000481064 -0.00037267 -0.000372661 -0.000481064 -0.000481044 -0.000481077 -0.000481064 -0.000590585 -0.00059057 -0.000481064 -0.000481044 -0.00059057 -0.000590541 -0.00059063 -0.000590601 -0.000700471 -0.000700441 -0.000590601 -0.000590585 -0.000700441 -0.000700425 -0.000700471 -0.000700441 -0.000810398 -0.000810367 -0.000700441 -0.000700425 -0.000810367 -0.000810351 -0.000590585 -0.00059057 -0.000700425 -0.000700409 -0.00059057 -0.000590541 -0.000700409 -0.000700375 -0.000700425 -0.000700409 -0.000810351 -0.000810336 -0.000700409 -0.000700375 -0.000810336 -0.000810303 -0.000372661 -0.00037265 -0.000481044 -0.000481012 -0.00037265 -0.000372639 -0.000481012 -0.000480972 -0.000481044 -0.000481012 -0.000590541 -0.000590492 -0.000481012 -0.000480972 -0.000590492 -0.000590429 -0.000372639 -0.000372629 -0.000480972 -0.000480934 -0.000372629 -0.000372626 -0.000480934 -0.000480935 -0.000480972 -0.000480934 -0.000590429 -0.000590365 -0.000480934 -0.000480935 -0.000590365 -0.000590358 -0.000590541 -0.000590492 -0.000700375 -0.000700316 -0.000590492 -0.000590429 -0.000700316 -0.000700235 -0.000700375 -0.000700316 -0.000810303 -0.000810239 -0.000700316 -0.000700235 -0.000810239 -0.00081015 -0.000590429 -0.000590365 -0.000700235 -0.000700154 -0.000590365 -0.000590358 -0.000700154 -0.000700127 -0.000700235 -0.000700154 -0.00081015 -0.000810055 -0.000700154 -0.000700127 -0.000810055 -0.000810006 -0.000810398 -0.000810367 -0.000920346 -0.000920313 -0.000810367 -0.000810351 -0.000920313 -0.000920297 -0.000920346 -0.000920313 -0.0010303 -0.00103027 -0.000920313 -0.000920297 -0.00103027 -0.00103025 -0.000810351 -0.000810336 -0.000920297 -0.000920284 -0.000810336 -0.000810303 -0.000920284 -0.000920256 -0.000920297 -0.000920284 -0.00103025 -0.00103024 -0.000920284 -0.000920256 -0.00103024 -0.00103022 -0.0010303 -0.00103027 -0.00114026 -0.00114023 -0.00103027 -0.00103025 -0.00114023 -0.00114021 -0.00114026 -0.00114023 -0.00125023 -0.00125019 -0.00114023 -0.00114021 -0.00125019 -0.00125017 -0.00103025 -0.00103024 -0.00114021 -0.00114019 -0.00103024 -0.00103022 -0.00114019 -0.00114018 -0.00114021 -0.00114019 -0.00125017 -0.00125015 -0.00114019 -0.00114018 -0.00125015 -0.00125014 -0.000810303 -0.000810239 -0.000920256 -0.000920197 -0.000810239 -0.00081015 -0.000920197 -0.000920106 -0.000920256 -0.000920197 -0.00103022 -0.00103017 -0.000920197 -0.000920106 -0.00103017 -0.00103009 -0.00081015 -0.000810055 -0.000920106 -0.000920004 -0.000810055 -0.000810006 -0.000920004 -0.000919931 -0.000920106 -0.000920004 -0.00103009 -0.00102998 -0.000920004 -0.000919931 -0.00102998 -0.00102989 -0.00103022 -0.00103017 -0.00114018 -0.00114014 -0.00103017 -0.00103009 -0.00114014 -0.00114008 -0.00114018 -0.00114014 -0.00125014 -0.00125012 -0.00114014 -0.00114008 -0.00125012 -0.00125007 -0.00103009 -0.00102998 -0.00114008 -0.00113999 -0.00102998 -0.00102989 -0.00113999 -0.00113988 -0.00114008 -0.00113999 -0.00125007 -0.00125001 -0.00113999 -0.00113988 -0.00125001 -0.00124991 -0.000372626 -0.000372636 -0.000480935 -0.000481089 -0.000372636 -0.000372661 -0.000481089 -0.000481625 -0.000480935 -0.000481089 -0.000590358 -0.000590575 -0.000481089 -0.000481625 -0.000590575 -0.00059137 -0.000372661 -0.000372692 -0.000481625 -0.000482924 -0.000372692 -0.000372705 -0.000482924 -0.000485564 -0.000481625 -0.000482924 -0.00059137 -0.000593315 -0.000482924 -0.000485564 -0.000593315 -0.000597218 -0.000590358 -0.000590575 -0.000700127 -0.000700316 -0.000590575 -0.00059137 -0.000700316 -0.000701056 -0.000700127 -0.000700316 -0.000810006 -0.00081012 -0.000700316 -0.000701056 -0.00081012 -0.000810631 -0.00059137 -0.000593315 -0.000701056 -0.000702866 -0.000593315 -0.000597218 -0.000702866 -0.000706387 -0.000701056 -0.000702866 -0.000810631 -0.000811867 -0.000702866 -0.000706387 -0.000811867 -0.000814127 -0.000372705 -0.000372665 -0.000485564 -0.000490521 -0.000372665 -0.000372524 -0.000490521 -0.000499807 -0.000485564 -0.000490521 -0.000597218 -0.000604231 -0.000490521 -0.000499807 -0.000604231 -0.000615914 -0.000372524 -0.000372114 -0.000499807 -0.000517927 -0.000372114 -0.000371563 -0.000517927 -0.000559495 -0.000499807 -0.000517927 -0.000615914 -0.000634382 -0.000517927 -0.000559495 -0.000634382 -0.000652763 -0.000597218 -0.000604231 -0.000706387 -0.000712235 -0.000604231 -0.000615914 -0.000712235 -0.000720757 -0.000706387 -0.000712235 -0.000814127 -0.000817487 -0.000712235 -0.000720757 -0.000817487 -0.000821416 -0.000615914 -0.000634382 -0.000720757 -0.000730362 -0.000634382 -0.000652763 -0.000730362 -0.000739257 -0.000720757 -0.000730362 -0.000821416 -0.000824896 -0.000730362 -0.000739257 -0.000824896 -0.000826689 -0.000810006 -0.00081012 -0.000919931 -0.000919968 -0.00081012 -0.000810631 -0.000919968 -0.000920249 -0.000919931 -0.000919968 -0.00102989 -0.00102986 -0.000919968 -0.000920249 -0.00102986 -0.00102997 -0.000810631 -0.000811867 -0.000920249 -0.000920921 -0.000811867 -0.000814127 -0.000920921 -0.000922025 -0.000920249 -0.000920921 -0.00102997 -0.0010303 -0.000920921 -0.000922025 -0.0010303 -0.00103078 -0.00102989 -0.00102986 -0.00113988 -0.0011398 -0.00102986 -0.00102997 -0.0011398 -0.0011398 -0.00113988 -0.0011398 -0.00124991 -0.00124981 -0.0011398 -0.0011398 -0.00124981 -0.00124973 -0.00102997 -0.0010303 -0.0011398 -0.00113992 -0.0010303 -0.00103078 -0.00113992 -0.00114016 -0.0011398 -0.00113992 -0.00124973 -0.00124971 -0.00113992 -0.00114016 -0.00124971 -0.00124979 -0.000814127 -0.000817487 -0.000922025 -0.000923331 -0.000817487 -0.000821416 -0.000923331 -0.000924294 -0.000922025 -0.000923331 -0.00103078 -0.00103117 -0.000923331 -0.000924294 -0.00103117 -0.00103105 -0.000821416 -0.000824896 -0.000924294 -0.000924176 -0.000824896 -0.000826689 -0.000924176 -0.000922543 -0.000924294 -0.000924176 -0.00103105 -0.00102999 -0.000924176 -0.000922543 -0.00102999 -0.00102784 -0.00103078 -0.00103117 -0.00114016 -0.00114038 -0.00103117 -0.00103105 -0.00114038 -0.00114034 -0.00114016 -0.00114038 -0.00124979 -0.00124996 -0.00114038 -0.00114034 -0.00124996 -0.00125015 -0.00103105 -0.00102999 -0.00114034 -0.00113983 -0.00102999 -0.00102784 -0.00113983 -0.00113879 -0.00114034 -0.00113983 -0.00125015 -0.00125026 -0.00113983 -0.00113879 -0.00125026 -0.00125029 -0.00125023 -0.00125019 -0.0013602 -0.00136016 -0.00125019 -0.00125017 -0.00136016 -0.00136013 -0.0013602 -0.00136016 -0.00147018 -0.00147014 -0.00136016 -0.00136013 -0.00147014 -0.0014701 -0.00125017 -0.00125015 -0.00136013 -0.00136012 -0.00125015 -0.00125014 -0.00136012 -0.0013601 -0.00136013 -0.00136012 -0.0014701 -0.00147008 -0.00136012 -0.0013601 -0.00147008 -0.00147007 -0.00147018 -0.00147014 -0.00158016 -0.00158012 -0.00147014 -0.0014701 -0.00158012 -0.00158008 -0.00158016 -0.00158012 -0.00169015 -0.0016901 -0.00158012 -0.00158008 -0.0016901 -0.00169007 -0.0014701 -0.00147008 -0.00158008 -0.00158006 -0.00147008 -0.00147007 -0.00158006 -0.00158004 -0.00158008 -0.00158006 -0.00169007 -0.00169004 -0.00158006 -0.00158004 -0.00169004 -0.00169002 -0.00125014 -0.00125012 -0.0013601 -0.00136009 -0.00125012 -0.00125007 -0.00136009 -0.00136006 -0.0013601 -0.00136009 -0.00147007 -0.00147006 -0.00136009 -0.00136006 -0.00147006 -0.00147004 -0.00125007 -0.00125001 -0.00136006 -0.00136002 -0.00125001 -0.00124991 -0.00136002 -0.00135996 -0.00136006 -0.00136002 -0.00147004 -0.00147002 -0.00136002 -0.00135996 -0.00147002 -0.00146998 -0.00147007 -0.00147006 -0.00158004 -0.00158003 -0.00147006 -0.00147004 -0.00158003 -0.00158002 -0.00158004 -0.00158003 -0.00169002 -0.00169001 -0.00158003 -0.00158002 -0.00169001 -0.00169 -0.00147004 -0.00147002 -0.00158002 -0.00158001 -0.00147002 -0.00146998 -0.00158001 -0.00157999 -0.00158002 -0.00158001 -0.00169 -0.00168999 -0.00158001 -0.00157999 -0.00168999 -0.00168998 -0.00169015 -0.0016901 -0.00180014 -0.00180009 -0.0016901 -0.00169007 -0.00180009 -0.00180005 -0.00180014 -0.00180009 -0.00191013 -0.00191007 -0.00180009 -0.00180005 -0.00191007 -0.00191004 -0.00169007 -0.00169004 -0.00180005 -0.00180003 -0.00169004 -0.00169002 -0.00180003 -0.00180001 -0.00180005 -0.00180003 -0.00191004 -0.00191002 -0.00180003 -0.00180001 -0.00191002 -0.00191 -0.00191013 -0.00191007 -0.0020201 -0.00202005 -0.00191007 -0.00191004 -0.00202005 -0.00202002 -0.0020201 -0.00202005 -0.00213 -0.00213 -0.00202005 -0.00202002 -0.00213 -0.00213 -0.00191004 -0.00191002 -0.00202002 -0.00202001 -0.00191002 -0.00191 -0.00202001 -0.00202 -0.00202002 -0.00202001 -0.00213 -0.00213 -0.00202001 -0.00202 -0.00213 -0.00213 -0.00169002 -0.00169001 -0.00180001 -0.00179999 -0.00169001 -0.00169 -0.00179999 -0.00179998 -0.00180001 -0.00179999 -0.00191 -0.00190999 -0.00179999 -0.00179998 -0.00190999 -0.00190998 -0.00169 -0.00168999 -0.00179998 -0.00179998 -0.00168999 -0.00168998 -0.00179998 -0.00179998 -0.00179998 -0.00179998 -0.00190998 -0.00190997 -0.00179998 -0.00179998 -0.00190997 -0.00190997 -0.00191 -0.00190999 -0.00202 -0.00201999 -0.00190999 -0.00190998 -0.00201999 -0.00201998 -0.00202 -0.00201999 -0.00213 -0.00213 -0.00201999 -0.00201998 -0.00213 -0.00213 -0.00190998 -0.00190997 -0.00201998 -0.00201998 -0.00190997 -0.00190997 -0.00201998 -0.00201998 -0.00201998 -0.00201998 -0.00213 -0.00213 -0.00201998 -0.00201998 -0.00213 -0.00213 -0.00124991 -0.00124981 -0.00135996 -0.00135987 -0.00124981 -0.00124973 -0.00135987 -0.00135978 -0.00135996 -0.00135987 -0.00146998 -0.00146993 -0.00135987 -0.00135978 -0.00146993 -0.00146987 -0.00124973 -0.00124971 -0.00135978 -0.00135969 -0.00124971 -0.00124979 -0.00135969 -0.00135964 -0.00135978 -0.00135969 -0.00146987 -0.0014698 -0.00135969 -0.00135964 -0.0014698 -0.00146972 -0.00146998 -0.00146993 -0.00157999 -0.00157996 -0.00146993 -0.00146987 -0.00157996 -0.00157993 -0.00157999 -0.00157996 -0.00168998 -0.00168997 -0.00157996 -0.00157993 -0.00168997 -0.00168995 -0.00146987 -0.0014698 -0.00157993 -0.0015799 -0.0014698 -0.00146972 -0.0015799 -0.00157986 -0.00157993 -0.0015799 -0.00168995 -0.00168994 -0.0015799 -0.00157986 -0.00168994 -0.00168993 -0.00124979 -0.00124996 -0.00135964 -0.00135966 -0.00124996 -0.00125015 -0.00135966 -0.00135978 -0.00135964 -0.00135966 -0.00146972 -0.00146966 -0.00135966 -0.00135978 -0.00146966 -0.00146964 -0.00125015 -0.00125026 -0.00135978 -0.00135999 -0.00125026 -0.00125029 -0.00135999 -0.00136027 -0.00135978 -0.00135999 -0.00146964 -0.00146967 -0.00135999 -0.00136027 -0.00146967 -0.00146976 -0.00146972 -0.00146966 -0.00157986 -0.00157982 -0.00146966 -0.00146964 -0.00157982 -0.00157979 -0.00157986 -0.00157982 -0.00168993 -0.00168992 -0.00157982 -0.00157979 -0.00168992 -0.00168992 -0.00146964 -0.00146967 -0.00157979 -0.00157976 -0.00146967 -0.00146976 -0.00157976 -0.00157975 -0.00157979 -0.00157976 -0.00168992 -0.00168992 -0.00157976 -0.00157975 -0.00168992 -0.00168993 -0.00168998 -0.00168997 -0.00179998 -0.00179997 -0.00168997 -0.00168995 -0.00179997 -0.00179996 -0.00179998 -0.00179997 -0.00190997 -0.00190997 -0.00179997 -0.00179996 -0.00190997 -0.00190997 -0.00168995 -0.00168994 -0.00179996 -0.00179995 -0.00168994 -0.00168993 -0.00179995 -0.00179994 -0.00179996 -0.00179995 -0.00190997 -0.00190997 -0.00179995 -0.00179994 -0.00190997 -0.00190996 -0.00190997 -0.00190997 -0.00201998 -0.00201998 -0.00190997 -0.00190997 -0.00201998 -0.00201998 -0.00201998 -0.00201998 -0.00213 -0.00213 -0.00201998 -0.00201998 -0.00213 -0.00213 -0.00190997 -0.00190997 -0.00201998 -0.00201999 -0.00190997 -0.00190996 -0.00201999 -0.00201999 -0.00201998 -0.00201999 -0.00213 -0.00213 -0.00201999 -0.00201999 -0.00213 -0.00213 -0.00168993 -0.00168992 -0.00179994 -0.00179994 -0.00168992 -0.00168992 -0.00179994 -0.00179994 -0.00179994 -0.00179994 -0.00190996 -0.00190996 -0.00179994 -0.00179994 -0.00190996 -0.00190995 -0.00168992 -0.00168992 -0.00179994 -0.00179994 -0.00168992 -0.00168993 -0.00179994 -0.00179995 -0.00179994 -0.00179994 -0.00190995 -0.00190994 -0.00179994 -0.00179995 -0.00190994 -0.00190994 -0.00190996 -0.00190996 -0.00201999 -0.00201999 -0.00190996 -0.00190995 -0.00201999 -0.00201998 -0.00201999 -0.00201999 -0.00213 -0.00213 -0.00201999 -0.00201998 -0.00213 -0.00213 -0.00190995 -0.00190994 -0.00201998 -0.00201998 -0.00190994 -0.00190994 -0.00201998 -0.00201997 -0.00201998 -0.00201998 -0.00213 -0.00213 -0.00201998 -0.00201997 -0.00213 -0.00213 -0.000371563 -0.000528302 -0.000559495 -0.000590361 -0.000528302 -0.000614613 -0.000590361 -0.000634852 -0.000559495 -0.000590361 -0.000652763 -0.000671162 -0.000590361 -0.000634852 -0.000671162 -0.000687781 -0.000614613 -0.000666102 -0.000634852 -0.000673483 -0.000666102 -0.00069835 -0.000673483 -0.000702397 -0.000634852 -0.000673483 -0.000687781 -0.000707582 -0.000673483 -0.000702397 -0.000707582 -0.000725979 -0.000652763 -0.000671162 -0.000739257 -0.000745658 -0.000671162 -0.000687781 -0.000745658 -0.000751789 -0.000739257 -0.000745658 -0.000826689 -0.000826795 -0.000745658 -0.000751789 -0.000826795 -0.000826298 -0.000687781 -0.000707582 -0.000751789 -0.000758939 -0.000707582 -0.000725979 -0.000758939 -0.000767333 -0.000751789 -0.000758939 -0.000826298 -0.000826799 -0.000758939 -0.000767333 -0.000826799 -0.000828773 -0.00069835 -0.000718402 -0.000702397 -0.000722641 -0.000718402 -0.000730841 -0.000722641 -0.000735938 -0.000702397 -0.000722641 -0.000725979 -0.000740656 -0.000722641 -0.000735938 -0.000740656 -0.000750989 -0.000730841 -0.000738697 -0.000735938 -0.000743904 -0.000738697 -0.00074354 -0.000743904 -0.00074799 -0.000735938 -0.000743904 -0.000750989 -0.000757247 -0.000743904 -0.00074799 -0.000757247 -0.000760269 -0.000725979 -0.000740656 -0.000767333 -0.000775257 -0.000740656 -0.000750989 -0.000775257 -0.000781455 -0.000767333 -0.000775257 -0.000828773 -0.00083173 -0.000775257 -0.000781455 -0.00083173 -0.000834662 -0.000750989 -0.000757247 -0.000781455 -0.000785421 -0.000757247 -0.000760269 -0.000785421 -0.000787361 -0.000781455 -0.000785421 -0.000834662 -0.000836825 -0.000785421 -0.000787361 -0.000836825 -0.00083799 -0.000826689 -0.000826795 -0.000922543 -0.00091964 -0.000826795 -0.000826298 -0.00091964 -0.000916496 -0.000922543 -0.00091964 -0.00102784 -0.00102496 -0.00091964 -0.000916496 -0.00102496 -0.00102211 -0.000826298 -0.000826799 -0.000916496 -0.000914254 -0.000826799 -0.000828773 -0.000914254 -0.000913547 -0.000916496 -0.000914254 -0.00102211 -0.00102008 -0.000914254 -0.000913547 -0.00102008 -0.00101927 -0.00102784 -0.00102496 -0.00113879 -0.00113747 -0.00102496 -0.00102211 -0.00113747 -0.00113629 -0.00113879 -0.00113747 -0.00125029 -0.00125029 -0.00113747 -0.00113629 -0.00125029 -0.00125041 -0.00102211 -0.00102008 -0.00113629 -0.00113565 -0.00102008 -0.00101927 -0.00113565 -0.00113567 -0.00113629 -0.00113565 -0.00125041 -0.00125071 -0.00113565 -0.00113567 -0.00125071 -0.00125115 -0.000828773 -0.00083173 -0.000913547 -0.000914179 -0.00083173 -0.000834662 -0.000914179 -0.000915451 -0.000913547 -0.000914179 -0.00101927 -0.00101952 -0.000914179 -0.000915451 -0.00101952 -0.00102028 -0.000834662 -0.000836825 -0.000915451 -0.000916633 -0.000836825 -0.00083799 -0.000916633 -0.000917338 -0.000915451 -0.000916633 -0.00102028 -0.001021 -0.000916633 -0.000917338 -0.001021 -0.00102137 -0.00101927 -0.00101952 -0.00113567 -0.00113615 -0.00101952 -0.00102028 -0.00113615 -0.00113671 -0.00113567 -0.00113615 -0.00125115 -0.00125157 -0.00113615 -0.00113671 -0.00125157 -0.00125182 -0.00102028 -0.001021 -0.00113671 -0.00113707 -0.001021 -0.00102137 -0.00113707 -0.00113713 -0.00113671 -0.00113707 -0.00125182 -0.00125185 -0.00113707 -0.00113713 -0.00125185 -0.00125173 -0.00074354 -0.000745988 -0.00074799 -0.000749509 -0.000745988 -0.000746571 -0.000749509 -0.000749582 -0.00074799 -0.000749509 -0.000760269 -0.000761191 -0.000749509 -0.000749582 -0.000761191 -0.000761076 -0.000746571 -0.000746124 -0.000749582 -0.000749061 -0.000746124 -0.00074547 -0.000749061 -0.000748497 -0.000749582 -0.000749061 -0.000761076 -0.00076064 -0.000749061 -0.000748497 -0.00076064 -0.000760236 -0.000760269 -0.000761191 -0.000787361 -0.00078793 -0.000761191 -0.000761076 -0.00078793 -0.000787828 -0.000787361 -0.00078793 -0.00083799 -0.000838365 -0.00078793 -0.000787828 -0.000838365 -0.000838295 -0.000761076 -0.00076064 -0.000787828 -0.000787521 -0.00076064 -0.000760236 -0.000787521 -0.000787224 -0.000787828 -0.000787521 -0.000838295 -0.000838048 -0.000787521 -0.000787224 -0.000838048 -0.000837783 -0.00074547 -0.000745033 -0.000748497 -0.000748148 -0.000745033 -0.000744862 -0.000748148 -0.00074804 -0.000748497 -0.000748148 -0.000760236 -0.000759991 -0.000748148 -0.00074804 -0.000759991 -0.000759903 -0.000744862 -0.000744846 -0.00074804 -0.000748059 -0.000744846 -0.000744859 -0.000748059 -0.000748083 -0.00074804 -0.000748059 -0.000759903 -0.000759901 -0.000748059 -0.000748083 -0.000759901 -0.000759911 -0.000760236 -0.000759991 -0.000787224 -0.00078702 -0.000759991 -0.000759903 -0.00078702 -0.000786925 -0.000787224 -0.00078702 -0.000837783 -0.000837591 -0.00078702 -0.000786925 -0.000837591 -0.000837504 -0.000759903 -0.000759901 -0.000786925 -0.000786901 -0.000759901 -0.000759911 -0.000786901 -0.000786897 -0.000786925 -0.000786901 -0.000837504 -0.000837484 -0.000786901 -0.000786897 -0.000837484 -0.000837475 -0.00083799 -0.000838365 -0.000917338 -0.000917548 -0.000838365 -0.000838295 -0.000917548 -0.000917434 -0.000917338 -0.000917548 -0.00102137 -0.00102138 -0.000917548 -0.000917434 -0.00102138 -0.00102119 -0.000838295 -0.000838048 -0.000917434 -0.000917181 -0.000838048 -0.000837783 -0.000917181 -0.000916932 -0.000917434 -0.000917181 -0.00102119 -0.00102094 -0.000917181 -0.000916932 -0.00102094 -0.00102074 -0.00102137 -0.00102138 -0.00113713 -0.00113699 -0.00102138 -0.00102119 -0.00113699 -0.00113677 -0.00113713 -0.00113699 -0.00125173 -0.00125154 -0.00113699 -0.00113677 -0.00125154 -0.00125137 -0.00102119 -0.00102094 -0.00113677 -0.00113657 -0.00102094 -0.00102074 -0.00113657 -0.00113645 -0.00113677 -0.00113657 -0.00125137 -0.00125125 -0.00113657 -0.00113645 -0.00125125 -0.00125119 -0.000837783 -0.000837591 -0.000916932 -0.000916774 -0.000837591 -0.000837504 -0.000916774 -0.000916718 -0.000916932 -0.000916774 -0.00102074 -0.00102064 -0.000916774 -0.000916718 -0.00102064 -0.00102062 -0.000837504 -0.000837484 -0.000916718 -0.000916714 -0.000837484 -0.000837475 -0.000916714 -0.000916699 -0.000916718 -0.000916714 -0.00102062 -0.00102062 -0.000916714 -0.000916699 -0.00102062 -0.00102059 -0.00102074 -0.00102064 -0.00113645 -0.0011364 -0.00102064 -0.00102062 -0.0011364 -0.00113639 -0.00113645 -0.0011364 -0.00125119 -0.00125117 -0.0011364 -0.00113639 -0.00125117 -0.00125117 -0.00102062 -0.00102062 -0.00113639 -0.00113639 -0.00102062 -0.00102059 -0.00113639 -0.00113636 -0.00113639 -0.00113639 -0.00125117 -0.00125116 -0.00113639 -0.00113636 -0.00125116 -0.00125113 -0.00125029 -0.00125029 -0.00136027 -0.0013606 -0.00125029 -0.00125041 -0.0013606 -0.00136096 -0.00136027 -0.0013606 -0.00146976 -0.00146989 -0.0013606 -0.00136096 -0.00146989 -0.00147 -0.00125041 -0.00125071 -0.00136096 -0.0013613 -0.00125071 -0.00125115 -0.0013613 -0.00136155 -0.00136096 -0.0013613 -0.00147 -0.00147008 -0.0013613 -0.00136155 -0.00147008 -0.00147008 -0.00146976 -0.00146989 -0.00157975 -0.00157975 -0.00146989 -0.00147 -0.00157975 -0.00157975 -0.00157975 -0.00157975 -0.00168993 -0.00168994 -0.00157975 -0.00157975 -0.00168994 -0.00168995 -0.00147 -0.00147008 -0.00157975 -0.00157973 -0.00147008 -0.00147008 -0.00157973 -0.00157969 -0.00157975 -0.00157973 -0.00168995 -0.00168996 -0.00157973 -0.00157969 -0.00168996 -0.00168997 -0.00125115 -0.00125157 -0.00136155 -0.00136167 -0.00125157 -0.00125182 -0.00136167 -0.00136164 -0.00136155 -0.00136167 -0.00147008 -0.00147002 -0.00136167 -0.00136164 -0.00147002 -0.00146993 -0.00125182 -0.00125185 -0.00136164 -0.00136152 -0.00125185 -0.00125173 -0.00136152 -0.00136137 -0.0013616