# vtk DataFile Version 3.0
#This file was generated by the deal.II library on 2022/11/16 at 21:23:23
ASCII
DATASET UNSTRUCTURED_GRID

POINTS 4096 double
0 0.5 0
0.03125 0.5 0
0 0.53125 0
0.03125 0.53125 0
0.03125 0.5 0
0.0625 0.5 0
0.03125 0.53125 0
0.0625 0.53125 0
0 0.53125 0
0.03125 0.53125 0
0 0.5625 0
0.03125 0.5625 0
0.03125 0.53125 0
0.0625 0.53125 0
0.03125 0.5625 0
0.0625 0.5625 0
0.0625 0.5 0
0.09375 0.5 0
0.0625 0.53125 0
0.09375 0.53125 0
0.09375 0.5 0
0.125 0.5 0
0.09375 0.53125 0
0.125 0.53125 0
0.0625 0.53125 0
0.09375 0.53125 0
0.0625 0.5625 0
0.09375 0.5625 0
0.09375 0.53125 0
0.125 0.53125 0
0.09375 0.5625 0
0.125 0.5625 0
0 0.5625 0
0.03125 0.5625 0
0 0.59375 0
0.03125 0.59375 0
0.03125 0.5625 0
0.0625 0.5625 0
0.03125 0.59375 0
0.0625 0.59375 0
0 0.59375 0
0.03125 0.59375 0
0 0.625 0
0.03125 0.625 0
0.03125 0.59375 0
0.0625 0.59375 0
0.03125 0.625 0
0.0625 0.625 0
0.0625 0.5625 0
0.09375 0.5625 0
0.0625 0.59375 0
0.09375 0.59375 0
0.09375 0.5625 0
0.125 0.5625 0
0.09375 0.59375 0
0.125 0.59375 0
0.0625 0.59375 0
0.09375 0.59375 0
0.0625 0.625 0
0.09375 0.625 0
0.09375 0.59375 0
0.125 0.59375 0
0.09375 0.625 0
0.125 0.625 0
0.125 0.5 0
0.15625 0.5 0
0.125 0.53125 0
0.15625 0.53125 0
0.15625 0.5 0
0.1875 0.5 0
0.15625 0.53125 0
0.1875 0.53125 0
0.125 0.53125 0
0.15625 0.53125 0
0.125 0.5625 0
0.15625 0.5625 0
0.15625 0.53125 0
0.1875 0.53125 0
0.15625 0.5625 0
0.1875 0.5625 0
0.1875 0.5 0
0.21875 0.5 0
0.1875 0.53125 0
0.21875 0.53125 0
0.21875 0.5 0
0.25 0.5 0
0.21875 0.53125 0
0.25 0.53125 0
0.1875 0.53125 0
0.21875 0.53125 0
0.1875 0.5625 0
0.21875 0.5625 0
0.21875 0.53125 0
0.25 0.53125 0
0.21875 0.5625 0
0.25 0.5625 0
0.125 0.5625 0
0.15625 0.5625 0
0.125 0.59375 0
0.15625 0.59375 0
0.15625 0.5625 0
0.1875 0.5625 0
0.15625 0.59375 0
0.1875 0.59375 0
0.125 0.59375 0
0.15625 0.59375 0
0.125 0.625 0
0.15625 0.625 0
0.15625 0.59375 0
0.1875 0.59375 0
0.15625 0.625 0
0.1875 0.625 0
0.1875 0.5625 0
0.21875 0.5625 0
0.1875 0.59375 0
0.21875 0.59375 0
0.21875 0.5625 0
0.25 0.5625 0
0.21875 0.59375 0
0.25 0.59375 0
0.1875 0.59375 0
0.21875 0.59375 0
0.1875 0.625 0
0.21875 0.625 0
0.21875 0.59375 0
0.25 0.59375 0
0.21875 0.625 0
0.25 0.625 0
0 0.625 0
0.03125 0.625 0
0 0.65625 0
0.03125 0.65625 0
0.03125 0.625 0
0.0625 0.625 0
0.03125 0.65625 0
0.0625 0.65625 0
0 0.65625 0
0.03125 0.65625 0
0 0.6875 0
0.03125 0.6875 0
0.03125 0.65625 0
0.0625 0.65625 0
0.03125 0.6875 0
0.0625 0.6875 0
0.0625 0.625 0
0.09375 0.625 0
0.0625 0.65625 0
0.09375 0.65625 0
0.09375 0.625 0
0.125 0.625 0
0.09375 0.65625 0
0.125 0.65625 0
0.0625 0.65625 0
0.09375 0.65625 0
0.0625 0.6875 0
0.09375 0.6875 0
0.09375 0.65625 0
0.125 0.65625 0
0.09375 0.6875 0
0.125 0.6875 0
0 0.6875 0
0.03125 0.6875 0
0 0.71875 0
0.03125 0.71875 0
0.03125 0.6875 0
0.0625 0.6875 0
0.03125 0.71875 0
0.0625 0.71875 0
0 0.71875 0
0.03125 0.71875 0
0 0.75 0
0.03125 0.75 0
0.03125 0.71875 0
0.0625 0.71875 0
0.03125 0.75 0
0.0625 0.75 0
0.0625 0.6875 0
0.09375 0.6875 0
0.0625 0.71875 0
0.09375 0.71875 0
0.09375 0.6875 0
0.125 0.6875 0
0.09375 0.71875 0
0.125 0.71875 0
0.0625 0.71875 0
0.09375 0.71875 0
0.0625 0.75 0
0.09375 0.75 0
0.09375 0.71875 0
0.125 0.71875 0
0.09375 0.75 0
0.125 0.75 0
0.125 0.625 0
0.15625 0.625 0
0.125 0.65625 0
0.15625 0.65625 0
0.15625 0.625 0
0.1875 0.625 0
0.15625 0.65625 0
0.1875 0.65625 0
0.125 0.65625 0
0.15625 0.65625 0
0.125 0.6875 0
0.15625 0.6875 0
0.15625 0.65625 0
0.1875 0.65625 0
0.15625 0.6875 0
0.1875 0.6875 0
0.1875 0.625 0
0.21875 0.625 0
0.1875 0.65625 0
0.21875 0.65625 0
0.21875 0.625 0
0.25 0.625 0
0.21875 0.65625 0
0.25 0.65625 0
0.1875 0.65625 0
0.21875 0.65625 0
0.1875 0.6875 0
0.21875 0.6875 0
0.21875 0.65625 0
0.25 0.65625 0
0.21875 0.6875 0
0.25 0.6875 0
0.125 0.6875 0
0.15625 0.6875 0
0.125 0.71875 0
0.15625 0.71875 0
0.15625 0.6875 0
0.1875 0.6875 0
0.15625 0.71875 0
0.1875 0.71875 0
0.125 0.71875 0
0.15625 0.71875 0
0.125 0.75 0
0.15625 0.75 0
0.15625 0.71875 0
0.1875 0.71875 0
0.15625 0.75 0
0.1875 0.75 0
0.1875 0.6875 0
0.21875 0.6875 0
0.1875 0.71875 0
0.21875 0.71875 0
0.21875 0.6875 0
0.25 0.6875 0
0.21875 0.71875 0
0.25 0.71875 0
0.1875 0.71875 0
0.21875 0.71875 0
0.1875 0.75 0
0.21875 0.75 0
0.21875 0.71875 0
0.25 0.71875 0
0.21875 0.75 0
0.25 0.75 0
0.25 0.5 0
0.28125 0.5 0
0.25 0.53125 0
0.28125 0.53125 0
0.28125 0.5 0
0.3125 0.5 0
0.28125 0.53125 0
0.3125 0.53125 0
0.25 0.53125 0
0.28125 0.53125 0
0.25 0.5625 0
0.28125 0.5625 0
0.28125 0.53125 0
0.3125 0.53125 0
0.28125 0.5625 0
0.3125 0.5625 0
0.3125 0.5 0
0.34375 0.5 0
0.3125 0.53125 0
0.34375 0.53125 0
0.34375 0.5 0
0.375 0.5 0
0.34375 0.53125 0
0.375 0.53125 0
0.3125 0.53125 0
0.34375 0.53125 0
0.3125 0.5625 0
0.34375 0.5625 0
0.34375 0.53125 0
0.375 0.53125 0
0.34375 0.5625 0
0.375 0.5625 0
0.25 0.5625 0
0.28125 0.5625 0
0.25 0.59375 0
0.28125 0.59375 0
0.28125 0.5625 0
0.3125 0.5625 0
0.28125 0.59375 0
0.3125 0.59375 0
0.25 0.59375 0
0.28125 0.59375 0
0.25 0.625 0
0.28125 0.625 0
0.28125 0.59375 0
0.3125 0.59375 0
0.28125 0.625 0
0.3125 0.625 0
0.3125 0.5625 0
0.34375 0.5625 0
0.3125 0.59375 0
0.34375 0.59375 0
0.34375 0.5625 0
0.375 0.5625 0
0.34375 0.59375 0
0.375 0.59375 0
0.3125 0.59375 0
0.34375 0.59375 0
0.3125 0.625 0
0.34375 0.625 0
0.34375 0.59375 0
0.375 0.59375 0
0.34375 0.625 0
0.375 0.625 0
0.375 0.5 0
0.40625 0.5 0
0.375 0.53125 0
0.40625 0.53125 0
0.40625 0.5 0
0.4375 0.5 0
0.40625 0.53125 0
0.4375 0.53125 0
0.375 0.53125 0
0.40625 0.53125 0
0.375 0.5625 0
0.40625 0.5625 0
0.40625 0.53125 0
0.4375 0.53125 0
0.40625 0.5625 0
0.4375 0.5625 0
0.4375 0.5 0
0.46875 0.5 0
0.4375 0.53125 0
0.46875 0.53125 0
0.46875 0.5 0
0.5 0.5 0
0.46875 0.53125 0
0.5 0.53125 0
0.4375 0.53125 0
0.46875 0.53125 0
0.4375 0.5625 0
0.46875 0.5625 0
0.46875 0.53125 0
0.5 0.53125 0
0.46875 0.5625 0
0.5 0.5625 0
0.375 0.5625 0
0.40625 0.5625 0
0.375 0.59375 0
0.40625 0.59375 0
0.40625 0.5625 0
0.4375 0.5625 0
0.40625 0.59375 0
0.4375 0.59375 0
0.375 0.59375 0
0.40625 0.59375 0
0.375 0.625 0
0.40625 0.625 0
0.40625 0.59375 0
0.4375 0.59375 0
0.40625 0.625 0
0.4375 0.625 0
0.4375 0.5625 0
0.46875 0.5625 0
0.4375 0.59375 0
0.46875 0.59375 0
0.46875 0.5625 0
0.5 0.5625 0
0.46875 0.59375 0
0.5 0.59375 0
0.4375 0.59375 0
0.46875 0.59375 0
0.4375 0.625 0
0.46875 0.625 0
0.46875 0.59375 0
0.5 0.59375 0
0.46875 0.625 0
0.5 0.625 0
0.25 0.625 0
0.28125 0.625 0
0.25 0.65625 0
0.28125 0.65625 0
0.28125 0.625 0
0.3125 0.625 0
0.28125 0.65625 0
0.3125 0.65625 0
0.25 0.65625 0
0.28125 0.65625 0
0.25 0.6875 0
0.28125 0.6875 0
0.28125 0.65625 0
0.3125 0.65625 0
0.28125 0.6875 0
0.3125 0.6875 0
0.3125 0.625 0
0.34375 0.625 0
0.3125 0.65625 0
0.34375 0.65625 0
0.34375 0.625 0
0.375 0.625 0
0.34375 0.65625 0
0.375 0.65625 0
0.3125 0.65625 0
0.34375 0.65625 0
0.3125 0.6875 0
0.34375 0.6875 0
0.34375 0.65625 0
0.375 0.65625 0
0.34375 0.6875 0
0.375 0.6875 0
0.25 0.6875 0
0.28125 0.6875 0
0.25 0.71875 0
0.28125 0.71875 0
0.28125 0.6875 0
0.3125 0.6875 0
0.28125 0.71875 0
0.3125 0.71875 0
0.25 0.71875 0
0.28125 0.71875 0
0.25 0.75 0
0.28125 0.75 0
0.28125 0.71875 0
0.3125 0.71875 0
0.28125 0.75 0
0.3125 0.75 0
0.3125 0.6875 0
0.34375 0.6875 0
0.3125 0.71875 0
0.34375 0.71875 0
0.34375 0.6875 0
0.375 0.6875 0
0.34375 0.71875 0
0.375 0.71875 0
0.3125 0.71875 0
0.34375 0.71875 0
0.3125 0.75 0
0.34375 0.75 0
0.34375 0.71875 0
0.375 0.71875 0
0.34375 0.75 0
0.375 0.75 0
0.375 0.625 0
0.40625 0.625 0
0.375 0.65625 0
0.40625 0.65625 0
0.40625 0.625 0
0.4375 0.625 0
0.40625 0.65625 0
0.4375 0.65625 0
0.375 0.65625 0
0.40625 0.65625 0
0.375 0.6875 0
0.40625 0.6875 0
0.40625 0.65625 0
0.4375 0.65625 0
0.40625 0.6875 0
0.4375 0.6875 0
0.4375 0.625 0
0.46875 0.625 0
0.4375 0.65625 0
0.46875 0.65625 0
0.46875 0.625 0
0.5 0.625 0
0.46875 0.65625 0
0.5 0.65625 0
0.4375 0.65625 0
0.46875 0.65625 0
0.4375 0.6875 0
0.46875 0.6875 0
0.46875 0.65625 0
0.5 0.65625 0
0.46875 0.6875 0
0.5 0.6875 0
0.375 0.6875 0
0.40625 0.6875 0
0.375 0.71875 0
0.40625 0.71875 0
0.40625 0.6875 0
0.4375 0.6875 0
0.40625 0.71875 0
0.4375 0.71875 0
0.375 0.71875 0
0.40625 0.71875 0
0.375 0.75 0
0.40625 0.75 0
0.40625 0.71875 0
0.4375 0.71875 0
0.40625 0.75 0
0.4375 0.75 0
0.4375 0.6875 0
0.46875 0.6875 0
0.4375 0.71875 0
0.46875 0.71875 0
0.46875 0.6875 0
0.5 0.6875 0
0.46875 0.71875 0
0.5 0.71875 0
0.4375 0.71875 0
0.46875 0.71875 0
0.4375 0.75 0
0.46875 0.75 0
0.46875 0.71875 0
0.5 0.71875 0
0.46875 0.75 0
0.5 0.75 0
0 0.75 0
0.03125 0.75 0
0 0.78125 0
0.03125 0.78125 0
0.03125 0.75 0
0.0625 0.75 0
0.03125 0.78125 0
0.0625 0.78125 0
0 0.78125 0
0.03125 0.78125 0
0 0.8125 0
0.03125 0.8125 0
0.03125 0.78125 0
0.0625 0.78125 0
0.03125 0.8125 0
0.0625 0.8125 0
0.0625 0.75 0
0.09375 0.75 0
0.0625 0.78125 0
0.09375 0.78125 0
0.09375 0.75 0
0.125 0.75 0
0.09375 0.78125 0
0.125 0.78125 0
0.0625 0.78125 0
0.09375 0.78125 0
0.0625 0.8125 0
0.09375 0.8125 0
0.09375 0.78125 0
0.125 0.78125 0
0.09375 0.8125 0
0.125 0.8125 0
0 0.8125 0
0.03125 0.8125 0
0 0.84375 0
0.03125 0.84375 0
0.03125 0.8125 0
0.0625 0.8125 0
0.03125 0.84375 0
0.0625 0.84375 0
0 0.84375 0
0.03125 0.84375 0
0 0.875 0
0.03125 0.875 0
0.03125 0.84375 0
0.0625 0.84375 0
0.03125 0.875 0
0.0625 0.875 0
0.0625 0.8125 0
0.09375 0.8125 0
0.0625 0.84375 0
0.09375 0.84375 0
0.09375 0.8125 0
0.125 0.8125 0
0.09375 0.84375 0
0.125 0.84375 0
0.0625 0.84375 0
0.09375 0.84375 0
0.0625 0.875 0
0.09375 0.875 0
0.09375 0.84375 0
0.125 0.84375 0
0.09375 0.875 0
0.125 0.875 0
0.125 0.75 0
0.15625 0.75 0
0.125 0.78125 0
0.15625 0.78125 0
0.15625 0.75 0
0.1875 0.75 0
0.15625 0.78125 0
0.1875 0.78125 0
0.125 0.78125 0
0.15625 0.78125 0
0.125 0.8125 0
0.15625 0.8125 0
0.15625 0.78125 0
0.1875 0.78125 0
0.15625 0.8125 0
0.1875 0.8125 0
0.1875 0.75 0
0.21875 0.75 0
0.1875 0.78125 0
0.21875 0.78125 0
0.21875 0.75 0
0.25 0.75 0
0.21875 0.78125 0
0.25 0.78125 0
0.1875 0.78125 0
0.21875 0.78125 0
0.1875 0.8125 0
0.21875 0.8125 0
0.21875 0.78125 0
0.25 0.78125 0
0.21875 0.8125 0
0.25 0.8125 0
0.125 0.8125 0
0.15625 0.8125 0
0.125 0.84375 0
0.15625 0.84375 0
0.15625 0.8125 0
[...]
POINT_DATA 4096
SCALARS x_dis double 1
LOOKUP_TABLE default
2.12251e-08 2.12249e-08 -7.1367e-08 -7.1366e-08 2.12249e-08 2.12242e-08 -7.1366e-08 -7.13635e-08 -7.1367e-08 -7.1366e-08 3.07319e-08 3.07376e-08 -7.1366e-08 -7.13635e-08 3.07376e-08 3.07531e-08 2.12242e-08 2.12232e-08 -7.13635e-08 -7.13603e-08 2.12232e-08 2.12221e-08 -7.13603e-08 -7.13572e-08 -7.13635e-08 -7.13603e-08 3.07531e-08 3.07749e-08 -7.13603e-08 -7.13572e-08 3.07749e-08 3.07981e-08 3.07319e-08 3.07376e-08 4.11483e-07 4.115e-07 3.07376e-08 3.07531e-08 4.115e-07 4.11546e-07 4.11483e-07 4.115e-07 -9.08216e-07 -9.08178e-07 4.115e-07 4.11546e-07 -9.08178e-07 -9.08071e-07 3.07531e-08 3.07749e-08 4.11546e-07 4.11614e-07 3.07749e-08 3.07981e-08 4.11614e-07 4.1169e-07 4.11546e-07 4.11614e-07 -9.08071e-07 -9.07915e-07 4.11614e-07 4.1169e-07 -9.07915e-07 -9.07737e-07 2.12221e-08 2.1221e-08 -7.13572e-08 -7.13549e-08 2.1221e-08 2.122e-08 -7.13549e-08 -7.13534e-08 -7.13572e-08 -7.13549e-08 3.07981e-08 3.08186e-08 -7.13549e-08 -7.13534e-08 3.08186e-08 3.08342e-08 2.122e-08 2.12194e-08 -7.13534e-08 -7.13527e-08 2.12194e-08 2.1219e-08 -7.13527e-08 -7.13524e-08 -7.13534e-08 -7.13527e-08 3.08342e-08 3.08446e-08 -7.13527e-08 -7.13524e-08 3.08446e-08 3.08506e-08 3.07981e-08 3.08186e-08 4.1169e-07 4.11761e-07 3.08186e-08 3.08342e-08 4.11761e-07 4.11819e-07 4.1169e-07 4.11761e-07 -9.07737e-07 -9.07562e-07 4.11761e-07 4.11819e-07 -9.07562e-07 -9.07413e-07 3.08342e-08 3.08446e-08 4.11819e-07 4.11861e-07 3.08446e-08 3.08506e-08 4.11861e-07 4.11886e-07 4.11819e-07 4.11861e-07 -9.07413e-07 -9.073e-07 4.11861e-07 4.11886e-07 -9.073e-07 -9.07226e-07 -9.08216e-07 -9.08178e-07 -1.38113e-06 -1.38105e-06 -9.08178e-07 -9.08071e-07 -1.38105e-06 -1.38083e-06 -1.38113e-06 -1.38105e-06 6.04008e-06 6.04024e-06 -1.38105e-06 -1.38083e-06 6.04024e-06 6.04067e-06 -9.08071e-07 -9.07915e-07 -1.38083e-06 -1.38051e-06 -9.07915e-07 -9.07737e-07 -1.38051e-06 -1.38015e-06 -1.38083e-06 -1.38051e-06 6.04067e-06 6.04127e-06 -1.38051e-06 -1.38015e-06 6.04127e-06 6.04193e-06 6.04008e-06 6.04024e-06 8.17568e-06 8.17597e-06 6.04024e-06 6.04067e-06 8.17597e-06 8.17674e-06 8.17568e-06 8.17597e-06 -2.40594e-05 -2.40588e-05 8.17597e-06 8.17674e-06 -2.40588e-05 -2.40575e-05 6.04067e-06 6.04127e-06 8.17674e-06 8.17779e-06 6.04127e-06 6.04193e-06 8.17779e-06 8.17893e-06 8.17674e-06 8.17779e-06 -2.40575e-05 -2.40558e-05 8.17779e-06 8.17893e-06 -2.40558e-05 -2.4054e-05 -9.07737e-07 -9.07562e-07 -1.38015e-06 -1.3798e-06 -9.07562e-07 -9.07413e-07 -1.3798e-06 -1.3795e-06 -1.38015e-06 -1.3798e-06 6.04193e-06 6.04257e-06 -1.3798e-06 -1.3795e-06 6.04257e-06 6.04311e-06 -9.07413e-07 -9.073e-07 -1.3795e-06 -1.37926e-06 -9.073e-07 -9.07226e-07 -1.37926e-06 -1.37909e-06 -1.3795e-06 -1.37926e-06 6.04311e-06 6.04354e-06 -1.37926e-06 -1.37909e-06 6.04354e-06 6.04386e-06 6.04193e-06 6.04257e-06 8.17893e-06 8.17999e-06 6.04257e-06 6.04311e-06 8.17999e-06 8.18089e-06 8.17893e-06 8.17999e-06 -2.4054e-05 -2.40523e-05 8.17999e-06 8.18089e-06 -2.40523e-05 -2.4051e-05 6.04311e-06 6.04354e-06 8.18089e-06 8.1816e-06 6.04354e-06 6.04386e-06 8.1816e-06 8.18211e-06 8.18089e-06 8.1816e-06 -2.4051e-05 -2.40499e-05 8.1816e-06 8.18211e-06 -2.40499e-05 -2.40491e-05 2.1219e-08 2.12188e-08 -7.13524e-08 -7.13526e-08 2.12188e-08 2.12186e-08 -7.13526e-08 -7.13549e-08 -7.13524e-08 -7.13526e-08 3.08506e-08 3.0853e-08 -7.13526e-08 -7.13549e-08 3.0853e-08 3.08522e-08 2.12186e-08 2.12184e-08 -7.13549e-08 -7.13532e-08 2.12184e-08 2.12194e-08 -7.13532e-08 -7.13297e-08 -7.13549e-08 -7.13532e-08 3.08522e-08 3.08547e-08 -7.13532e-08 -7.13297e-08 3.08547e-08 3.08699e-08 3.08506e-08 3.0853e-08 4.11886e-07 4.119e-07 3.0853e-08 3.08522e-08 4.119e-07 4.11905e-07 4.11886e-07 4.119e-07 -9.07226e-07 -9.07183e-07 4.119e-07 4.11905e-07 -9.07183e-07 -9.07162e-07 3.08522e-08 3.08547e-08 4.11905e-07 4.11909e-07 3.08547e-08 3.08699e-08 4.11909e-07 4.11918e-07 4.11905e-07 4.11909e-07 -9.07162e-07 -9.07153e-07 4.11909e-07 4.11918e-07 -9.07153e-07 -9.07147e-07 2.12194e-08 2.12197e-08 -7.13297e-08 -7.13425e-08 2.12197e-08 2.1215e-08 -7.13425e-08 -7.155e-08 -7.13297e-08 -7.13425e-08 3.08699e-08 3.08605e-08 -7.13425e-08 -7.155e-08 3.08605e-08 3.08046e-08 2.1215e-08 2.12198e-08 -7.155e-08 -7.16975e-08 2.12198e-08 2.12381e-08 -7.16975e-08 -6.99487e-08 -7.155e-08 -7.16975e-08 3.08046e-08 3.08175e-08 -7.16975e-08 -6.99487e-08 3.08175e-08 2.98318e-08 3.08699e-08 3.08605e-08 4.11918e-07 4.11913e-07 3.08605e-08 3.08046e-08 4.11913e-07 4.11887e-07 4.11918e-07 4.11913e-07 -9.07147e-07 -9.07132e-07 4.11913e-07 4.11887e-07 -9.07132e-07 -9.07144e-07 3.08046e-08 3.08175e-08 4.11887e-07 4.1188e-07 3.08175e-08 2.98318e-08 4.1188e-07 4.12159e-07 4.11887e-07 4.1188e-07 -9.07144e-07 -9.07182e-07 4.1188e-07 4.12159e-07 -9.07182e-07 -9.0717e-07 -9.07226e-07 -9.07183e-07 -1.37909e-06 -1.37899e-06 -9.07183e-07 -9.07162e-07 -1.37899e-06 -1.37893e-06 -1.37909e-06 -1.37899e-06 6.04386e-06 6.04407e-06 -1.37899e-06 -1.37893e-06 6.04407e-06 6.04419e-06 -9.07162e-07 -9.07153e-07 -1.37893e-06 -1.3789e-06 -9.07153e-07 -9.07147e-07 -1.3789e-06 -1.3789e-06 -1.37893e-06 -1.3789e-06 6.04419e-06 6.04424e-06 -1.3789e-06 -1.3789e-06 6.04424e-06 6.04427e-06 6.04386e-06 6.04407e-06 8.18211e-06 8.18247e-06 6.04407e-06 6.04419e-06 8.18247e-06 8.18268e-06 8.18211e-06 8.18247e-06 -2.40491e-05 -2.40486e-05 8.18247e-06 8.18268e-06 -2.40486e-05 -2.40483e-05 6.04419e-06 6.04424e-06 8.18268e-06 8.18279e-06 6.04424e-06 6.04427e-06 8.18279e-06 8.18284e-06 8.18268e-06 8.18279e-06 -2.40483e-05 -2.40481e-05 8.18279e-06 8.18284e-06 -2.40481e-05 -2.4048e-05 -9.07147e-07 -9.07132e-07 -1.3789e-06 -1.37889e-06 -9.07132e-07 -9.07144e-07 -1.37889e-06 -1.37887e-06 -1.3789e-06 -1.37889e-06 6.04427e-06 6.04427e-06 -1.37889e-06 -1.37887e-06 6.04427e-06 6.04427e-06 -9.07144e-07 -9.07182e-07 -1.37887e-06 -1.37886e-06 -9.07182e-07 -9.0717e-07 -1.37886e-06 -1.3789e-06 -1.37887e-06 -1.37886e-06 6.04427e-06 6.04428e-06 -1.37886e-06 -1.3789e-06 6.04428e-06 6.04429e-06 6.04427e-06 6.04427e-06 8.18284e-06 8.18286e-06 6.04427e-06 6.04427e-06 8.18286e-06 8.18286e-06 8.18284e-06 8.18286e-06 -2.4048e-05 -2.40479e-05 8.18286e-06 8.18286e-06 -2.40479e-05 -2.40479e-05 6.04427e-06 6.04428e-06 8.18286e-06 8.18285e-06 6.04428e-06 6.04429e-06 8.18285e-06 8.18285e-06 8.18286e-06 8.18285e-06 -2.40479e-05 -2.40479e-05 8.18285e-06 8.18285e-06 -2.40479e-05 -2.40479e-05 -2.40594e-05 -2.40588e-05 -9.66795e-05 -9.66779e-05 -2.40588e-05 -2.40575e-05 -9.66779e-05 -9.66756e-05 -9.66795e-05 -9.66779e-05 -0.000193852 -0.000193848 -9.66779e-05 -9.66756e-05 -0.000193848 -0.000193845 -2.40575e-05 -2.40558e-05 -9.66756e-05 -9.6673e-05 -2.40558e-05 -2.4054e-05 -9.6673e-05 -9.66704e-05 -9.66756e-05 -9.6673e-05 -0.000193845 -0.000193841 -9.6673e-05 -9.66704e-05 -0.000193841 -0.000193837 -0.000193852 -0.000193848 -0.0003008 -0.000300795 -0.000193848 -0.000193845 -0.000300795 -0.000300789 -0.0003008 -0.000300795 -0.000410187 -0.000410178 -0.000300795 -0.000300789 -0.000410178 -0.000410171 -0.000193845 -0.000193841 -0.000300789 -0.000300784 -0.000193841 -0.000193837 -0.000300784 -0.000300779 -0.000300789 -0.000300784 -0.000410171 -0.000410164 -0.000300784 -0.000300779 -0.000410164 -0.000410159 -2.4054e-05 -2.40523e-05 -9.66704e-05 -9.66681e-05 -2.40523e-05 -2.4051e-05 -9.66681e-05 -9.66661e-05 -9.66704e-05 -9.66681e-05 -0.000193837 -0.000193834 -9.66681e-05 -9.66661e-05 -0.000193834 -0.000193832 -2.4051e-05 -2.40499e-05 -9.66661e-05 -9.66646e-05 -2.40499e-05 -2.40491e-05 -9.66646e-05 -9.66635e-05 -9.66661e-05 -9.66646e-05 -0.000193832 -0.00019383 -9.66646e-05 -9.66635e-05 -0.00019383 -0.000193828 -0.000193837 -0.000193834 -0.000300779 -0.000300776 -0.000193834 -0.000193832 -0.000300776 -0.000300773 -0.000300779 -0.000300776 -0.000410159 -0.000410155 -0.000300776 -0.000300773 -0.000410155 -0.000410152 -0.000193832 -0.00019383 -0.000300773 -0.00030077 -0.00019383 -0.000193828 -0.00030077 -0.000300769 -0.000300773 -0.00030077 -0.000410152 -0.00041015 -0.00030077 -0.000300769 -0.00041015 -0.000410148 -0.000410187 -0.000410178 -0.000520119 -0.000520107 -0.000410178 -0.000410171 -0.000520107 -0.000520098 -0.000520119 -0.000520107 -0.000630064 -0.000630051 -0.000520107 -0.000520098 -0.000630051 -0.000630041 -0.000410171 -0.000410164 -0.000520098 -0.000520091 -0.000410164 -0.000410159 -0.000520091 -0.000520086 -0.000520098 -0.000520091 -0.000630041 -0.000630034 -0.000520091 -0.000520086 -0.000630034 -0.000630029 -0.000630064 -0.000630051 -0.000740048 -0.000740032 -0.000630051 -0.000630041 -0.000740032 -0.000740024 -0.000740048 -0.000740032 -0.00085 -0.00085 -0.000740032 -0.000740024 -0.00085 -0.00085 -0.000630041 -0.000630034 -0.000740024 -0.00074002 -0.000630034 -0.000630029 -0.00074002 -0.000740018 -0.000740024 -0.00074002 -0.00085 -0.00085 -0.00074002 -0.000740018 -0.00085 -0.00085 -0.000410159 -0.000410155 -0.000520086 -0.000520082 -0.000410155 -0.000410152 -0.000520082 -0.000520079 -0.000520086 -0.000520082 -0.000630029 -0.000630026 -0.000520082 -0.000520079 -0.000630026 -0.000630024 -0.000410152 -0.00041015 -0.000520079 -0.000520077 -0.00041015 -0.000410148 -0.000520077 -0.000520075 -0.000520079 -0.000520077 -0.000630024 -0.000630022 -0.000520077 -0.000520075 -0.000630022 -0.000630021 -0.000630029 -0.000630026 -0.000740018 -0.000740016 -0.000630026 -0.000630024 -0.000740016 -0.000740015 -0.000740018 -0.000740016 -0.00085 -0.00085 -0.000740016 -0.000740015 -0.00085 -0.00085 -0.000630024 -0.000630022 -0.000740015 -0.000740014 -0.000630022 -0.000630021 -0.000740014 -0.000740013 -0.000740015 -0.000740014 -0.00085 -0.00085 -0.000740014 -0.000740013 -0.00085 -0.00085 -2.40491e-05 -2.40486e-05 -9.66635e-05 -9.66628e-05 -2.40486e-05 -2.40483e-05 -9.66628e-05 -9.66623e-05 -9.66635e-05 -9.66628e-05 -0.000193828 -0.000193827 -9.66628e-05 -9.66623e-05 -0.000193827 -0.000193827 -2.40483e-05 -2.40481e-05 -9.66623e-05 -9.6662e-05 -2.40481e-05 -2.4048e-05 -9.6662e-05 -9.66619e-05 -9.66623e-05 -9.6662e-05 -0.000193827 -0.000193826 -9.6662e-05 -9.66619e-05 -0.000193826 -0.000193826 -0.000193828 -0.000193827 -0.000300769 -0.000300768 -0.000193827 -0.000193827 -0.000300768 -0.000300767 -0.000300769 -0.000300768 -0.000410148 -0.000410147 -0.000300768 -0.000300767 -0.000410147 -0.000410146 -0.000193827 -0.000193826 -0.000300767 -0.000300766 -0.000193826 -0.000193826 -0.000300766 -0.000300766 -0.000300767 -0.000300766 -0.000410146 -0.000410145 -0.000300766 -0.000300766 -0.000410145 -0.000410145 -2.4048e-05 -2.40479e-05 -9.66619e-05 -9.66619e-05 -2.40479e-05 -2.40479e-05 -9.66619e-05 -9.66618e-05 -9.66619e-05 -9.66619e-05 -0.000193826 -0.000193826 -9.66619e-05 -9.66618e-05 -0.000193826 -0.000193826 -2.40479e-05 -2.40479e-05 -9.66618e-05 -9.66618e-05 -2.40479e-05 -2.40479e-05 -9.66618e-05 -9.66618e-05 -9.66618e-05 -9.66618e-05 -0.000193826 -0.000193826 -9.66618e-05 -9.66618e-05 -0.000193826 -0.000193826 -0.000193826 -0.000193826 -0.000300766 -0.000300766 -0.000193826 -0.000193826 -0.000300766 -0.000300766 -0.000300766 -0.000300766 -0.000410145 -0.000410145 -0.000300766 -0.000300766 -0.000410145 -0.000410145 -0.000193826 -0.000193826 -0.000300766 -0.000300766 -0.000193826 -0.000193826 -0.000300766 -0.000300766 -0.000300766 -0.000300766 -0.000410145 -0.000410145 -0.000300766 -0.000300766 -0.000410145 -0.000410145 -0.000410148 -0.000410147 -0.000520075 -0.000520074 -0.000410147 -0.000410146 -0.000520074 -0.000520073 -0.000520075 -0.000520074 -0.000630021 -0.00063002 -0.000520074 -0.000520073 -0.00063002 -0.00063002 -0.000410146 -0.000410145 -0.000520073 -0.000520073 -0.000410145 -0.000410145 -0.000520073 -0.000520073 -0.000520073 -0.000520073 -0.00063002 -0.000630019 -0.000520073 -0.000520073 -0.000630019 -0.000630019 -0.000630021 -0.00063002 -0.000740013 -0.000740013 -0.00063002 -0.00063002 -0.000740013 -0.000740012 -0.000740013 -0.000740013 -0.00085 -0.00085 -0.000740013 -0.000740012 -0.00085 -0.00085 -0.00063002 -0.000630019 -0.000740012 -0.000740012 -0.000630019 -0.000630019 -0.000740012 -0.000740012 -0.000740012 -0.000740012 -0.00085 -0.00085 -0.000740012 -0.000740012 -0.00085 -0.00085 -0.000410145 -0.000410145 -0.000520073 -0.000520072 -0.000410145 -0.000410145 -0.000520072 -0.000520072 -0.000520073 -0.000520072 -0.000630019 -0.000630019 -0.000520072 -0.000520072 -0.000630019 -0.000630019 -0.000410145 -0.000410145 -0.000520072 -0.000520072 -0.000410145 -0.000410145 -0.000520072 -0.000520072 -0.000520072 -0.000520072 -0.000630019 -0.000630019 -0.000520072 -0.000520072 -0.000630019 -0.000630019 -0.000630019 -0.000630019 -0.000740012 -0.000740012 -0.000630019 -0.000630019 -0.000740012 -0.000740012 -0.000740012 -0.000740012 -0.00085 -0.00085 -0.000740012 -0.000740012 -0.00085 -0.00085 -0.000630019 -0.000630019 -0.000740012 -0.000740012 -0.000630019 -0.000630019 -0.000740012 -0.000740012 -0.000740012 -0.000740012 -0.00085 -0.00085 -0.000740012 -0.000740012 -0.00085 -0.00085 2.12381e-08 3.46217e-08 -6.99487e-08 -6.88753e-08 3.46217e-08 4.34221e-08 -6.88753e-08 -6.87629e-08 -6.99487e-08 -6.88753e-08 2.98318e-08 2.81038e-08 -6.88753e-08 -6.87629e-08 2.81038e-08 2.73094e-08 4.34221e-08 4.34607e-08 -6.87629e-08 -6.93744e-08 4.34607e-08 4.24054e-08 -6.93744e-08 -6.99439e-08 -6.87629e-08 -6.93744e-08 2.73094e-08 2.74079e-08 -6.93744e-08 -6.99439e-08 2.74079e-08 2.74335e-08 2.98318e-08 2.81038e-08 4.12159e-07 4.12761e-07 2.81038e-08 2.73094e-08 4.12761e-07 4.13217e-07 4.12159e-07 4.12761e-07 -9.0717e-07 -9.0714e-07 4.12761e-07 4.13217e-07 -9.0714e-07 -9.07213e-07 2.73094e-08 2.74079e-08 4.13217e-07 4.13265e-07 2.74079e-08 2.74335e-08 4.13265e-07 4.13175e-07 4.13217e-07 4.13265e-07 -9.07213e-07 -9.07318e-07 4.13265e-07 4.13175e-07 -9.07318e-07 -9.07326e-07 4.24054e-08 4.2287e-08 -6.99439e-08 -6.99377e-08 4.2287e-08 4.24285e-08 -6.99377e-08 -6.98206e-08 -6.99439e-08 -6.99377e-08 2.74335e-08 2.74096e-08 -6.99377e-08 -6.98206e-08 2.74096e-08 2.74326e-08 4.24285e-08 4.24617e-08 -6.98206e-08 -6.9817e-08 4.24617e-08 4.24382e-08 -6.9817e-08 -6.98349e-08 -6.98206e-08 -6.9817e-08 2.74326e-08 2.74417e-08 -6.9817e-08 -6.98349e-08 2.74417e-08 2.74396e-08 2.74335e-08 2.74096e-08 4.13175e-07 4.13161e-07 2.74096e-08 2.74326e-08 4.13161e-07 4.13187e-07 4.13175e-07 4.13161e-07 -9.07326e-07 -9.07288e-07 4.13161e-07 4.13187e-07 -9.07288e-07 -9.0727e-07 2.74326e-08 2.74417e-08 4.13187e-07 4.132e-07 2.74417e-08 2.74396e-08 4.132e-07 4.13209e-07 4.13187e-07 4.132e-07 -9.0727e-07 -9.07254e-07 4.132e-07 4.13209e-07 -9.07254e-07 -9.07213e-07 -9.0717e-07 -9.0714e-07 -1.3789e-06 -1.37899e-06 -9.0714e-07 -9.07213e-07 -1.37899e-06 -1.37903e-06 -1.3789e-06 -1.37899e-06 6.04429e-06 6.04431e-06 -1.37899e-06 -1.37903e-06 6.04431e-06 6.04434e-06 -9.07213e-07 -9.07318e-07 -1.37903e-06 -1.37901e-06 -9.07318e-07 -9.07326e-07 -1.37901e-06 -1.37897e-06 -1.37903e-06 -1.37901e-06 6.04434e-06 6.04435e-06 -1.37901e-06 -1.37897e-06 6.04435e-06 6.04435e-06 6.04429e-06 6.04431e-06 8.18285e-06 8.18285e-06 6.04431e-06 6.04434e-06 8.18285e-06 8.18285e-06 8.18285e-06 8.18285e-06 -2.40479e-05 -2.40479e-05 8.18285e-06 8.18285e-06 -2.40479e-05 -2.40479e-05 6.04434e-06 6.04435e-06 8.18285e-06 8.18285e-06 6.04435e-06 6.04435e-06 8.18285e-06 8.18286e-06 8.18285e-06 8.18285e-06 -2.40479e-05 -2.40479e-05 8.18285e-06 8.18286e-06 -2.40479e-05 -2.40479e-05 -9.07326e-07 -9.07288e-07 -1.37897e-06 -1.37896e-06 -9.07288e-07 -9.0727e-07 -1.37896e-06 -1.37894e-06 -1.37897e-06 -1.37896e-06 6.04435e-06 6.04437e-06 -1.37896e-06 -1.37894e-06 6.04437e-06 6.04442e-06 -9.0727e-07 -9.07254e-07 -1.37894e-06 -1.37889e-06 -9.07254e-07 -9.07213e-07 -1.37889e-06 -1.37878e-06 -1.37894e-06 -1.37889e-06 6.04442e-06 6.04454e-06 -1.37889e-06 -1.37878e-06 6.04454e-06 6.04475e-06 6.04435e-06 6.04437e-06 8.18286e-06 8.18291e-06 6.04437e-06 6.04442e-06 8.18291e-06 8.18302e-06 8.18286e-06 8.18291e-06 -2.40479e-05 -2.40478e-05 8.18291e-06 8.18302e-06 -2.40478e-05 -2.40476e-05 6.04442e-06 6.04454e-06 8.18302e-06 8.18323e-06 6.04454e-06 6.04475e-06 8.18323e-06 8.18359e-06 8.18302e-06 8.18323e-06 -2.40476e-05 -2.40473e-05 8.18323e-06 8.18359e-06 -2.40473e-05 -2.40468e-05 4.24382e-08 4.24319e-08 -6.98349e-08 -6.98351e-08 4.24319e-08 4.24345e-08 -6.98351e-08 -6.98317e-08 -6.98349e-08 -6.98351e-08 2.74396e-08 2.74436e-08 -6.98351e-08 -6.98317e-08 2.74436e-08 2.74547e-08 4.24345e-08 4.2433e-08 -6.98317e-08 -6.98299e-08 4.2433e-08 4.24301e-08 -6.98299e-08 -6.98275e-08 -6.98317e-08 -6.98299e-08 2.74547e-08 2.74707e-08 -6.98299e-08 -6.98275e-08 2.74707e-08 2.74913e-08 2.74396e-08 2.74436e-08 4.13209e-07 4.13233e-07 2.74436e-08 2.74547e-08 4.13233e-07 4.13275e-07 4.13209e-07 4.13233e-07 -9.07213e-07 -9.07138e-07 4.13233e-07 4.13275e-07 -9.07138e-07 -9.07026e-07 2.74547e-08 2.74707e-08 4.13275e-07 4.13333e-07 2.74707e-08 2.74913e-08 4.13333e-07 4.13404e-07 4.13275e-07 4.13333e-07 -9.07026e-07 -9.06876e-07 4.13333e-07 4.13404e-07 -9.06876e-07 -9.06701e-07 4.24301e-08 4.24275e-08 -6.98275e-08 -6.9824e-08 4.24275e-08 4.24254e-08 -6.9824e-08 -6.98204e-08 -6.98275e-08 -6.9824e-08 2.74913e-08 2.75147e-08 -6.9824e-08 -6.98204e-08 2.75147e-08 2.75368e-08 4.24254e-08 4.24238e-08 -6.98204e-08 -6.98177e-08 4.24238e-08 4.24233e-08 -6.98177e-08 -6.98167e-08 -6.98204e-08 -6.98177e-08 2.75368e-08 2.75525e-08 -6.98177e-08 -6.98167e-08 2.75525e-08 2.75583e-08 2.74913e-08 2.75147e-08 4.13404e-07 4.1348e-07 2.75147e-08 2.75368e-08 4.1348e-07 4.13548e-07 4.13404e-07 4.1348e-07 -9.06701e-07 -9.06523e-07 4.1348e-07 4.13548e-07 -9.06523e-07 -9.06367e-07 2.75368e-08 2.75525e-08 4.13548e-07 4.13594e-07 2.75525e-08 2.75583e-08 4.13594e-07 4.13611e-07 4.13548e-07 4.13594e-07 -9.06367e-07 -9.06261e-07 4.13594e-07 4.13611e-07 -9.06261e-07 -9.06222e-07 -9.07213e-07 -9.07138e-07 -1.37878e-06 -1.37861e-06 -9.07138e-07 -9.07026e-07 -1.37861e-06 -1.37837e-06 -1.37878e-06 -1.37861e-06 6.04475e-06 6.04507e-06 -1.37861e-06 -1.37837e-06 6.04507e-06 6.0455e-06 -9.07026e-07 -9.06876e-07 -1.37837e-06 -1.37807e-06 -9.06876e-07 -9.06701e-07 -1.37807e-06 -1.37772e-06 -1.37837e-06 -1.37807e-06 6.0455e-06 6.04605e-06 -1.37807e-06 -1.37772e-06 6.04605e-06 6.04668e-06 6.04475e-06 6.04507e-06 8.18359e-06 8.1841e-06 6.04507e-06 6.0455e-06 8.1841e-06 8.18481e-06 8.18359e-06 8.1841e-06 -2.40468e-05 -2.4046e-05 8.1841e-06 8.18481e-06 -2.4046e-05 -2.40449e-05 6.0455e-06 6.04605e-06 8.18481e-06 8.18571e-06 6.04605e-06 6.04668e-06 8.18571e-06 8.18677e-06 8.18481e-06 8.18571e-06 -2.40449e-05 -2.40435e-05 8.18571e-06 8.18677e-06 -2.40435e-05 -2.40419e-05 -9.06701e-07 -9.06523e-07 -1.37772e-06 -1.37736e-06 -9.06523e-07 -9.06367e-07 -1.37736e-06 -1.37704e-06 -1.37772e-06 -1.37736e-06 6.04668e-06 6.04734e-06 -1.37736e-06 -1.37704e-06 6.04734e-06 6.04795e-06 -9.06367e-07 -9.06261e-07 -1.37704e-06 -1.37682e-06 -9.06261e-07 -9.06222e-07 -1.37682e-06 -1.37674e-06 -1.37704e-06 -1.37682e-06 6.04795e-06 6.04837e-06 -1.37682e-06 -1.37674e-06 6.04837e-06 6.04853e-06 6.04668e-06 6.04734e-06 8.18677e-06 8.18791e-06 6.04734e-06 6.04795e-06 8.18791e-06 8.18896e-06 8.18677e-06 8.18791e-06 -2.40419e-05 -2.40401e-05 8.18791e-06 8.18896e-06 -2.40401e-05 -2.40384e-05 6.04795e-06 6.04837e-06 8.18896e-06 8.18973e-06 6.04837e-06 6.04853e-06 8.18973e-06 8.19002e-06 8.18896e-06 8.18973e-06 -2.40384e-05 -2.40371e-05 8.18973e-06 8.19002e-06 -2.40371e-05 -2.40365e-05 -2.40479e-05 -2.40479e-05 -9.66618e-05 -9.66618e-05 -2.40479e-05 -2.40479e-05 -9.66618e-05 -9.66618e-05 -9.66618e-05 -9.66618e-05 -0.000193826 -0.000193826 -9.66618e-05 -9.66618e-05 -0.000193826 -0.000193826 -2.40479e-05 -2.40479e-05 -9.66618e-05 -9.66618e-05 -2.40479e-05 -2.40479e-05 -9.66618e-05 -9.66618e-05 -9.66618e-05 -9.66618e-05 -0.000193826 -0.000193826 -9.66618e-05 -9.66618e-05 -0.000193826 -0.000193826 -0.000193826 -0.000193826 -0.000300766 -0.000300766 -0.000193826 -0.000193826 -0.000300766 -0.000300766 -0.000300766 -0.000300766 -0.000410145 -0.000410145 -0.000300766 -0.000300766 -0.000410145 -0.000410145 -0.000193826 -0.000193826 -0.000300766 -0.000300766 -0.000193826 -0.000193826 -0.000300766 -0.000300766 -0.000300766 -0.000300766 -0.000410145 -0.000410145 -0.000300766 -0.000300766 -0.000410145 -0.000410145 -2.40479e-05 -2.40478e