# vtk DataFile Version 3.0
#This file was generated by the deal.II library on 2022/11/16 at 21:14:37
ASCII
DATASET UNSTRUCTURED_GRID

POINTS 4096 double
0 0.5 0
0.03125 0.5 0
0 0.53125 0
0.03125 0.53125 0
0.03125 0.5 0
0.0625 0.5 0
0.03125 0.53125 0
0.0625 0.53125 0
0 0.53125 0
0.03125 0.53125 0
0 0.5625 0
0.03125 0.5625 0
0.03125 0.53125 0
0.0625 0.53125 0
0.03125 0.5625 0
0.0625 0.5625 0
0.0625 0.5 0
0.09375 0.5 0
0.0625 0.53125 0
0.09375 0.53125 0
0.09375 0.5 0
0.125 0.5 0
0.09375 0.53125 0
0.125 0.53125 0
0.0625 0.53125 0
0.09375 0.53125 0
0.0625 0.5625 0
0.09375 0.5625 0
0.09375 0.53125 0
0.125 0.53125 0
0.09375 0.5625 0
0.125 0.5625 0
0 0.5625 0
0.03125 0.5625 0
0 0.59375 0
0.03125 0.59375 0
0.03125 0.5625 0
0.0625 0.5625 0
0.03125 0.59375 0
0.0625 0.59375 0
0 0.59375 0
0.03125 0.59375 0
0 0.625 0
0.03125 0.625 0
0.03125 0.59375 0
0.0625 0.59375 0
0.03125 0.625 0
0.0625 0.625 0
0.0625 0.5625 0
0.09375 0.5625 0
0.0625 0.59375 0
0.09375 0.59375 0
0.09375 0.5625 0
0.125 0.5625 0
0.09375 0.59375 0
0.125 0.59375 0
0.0625 0.59375 0
0.09375 0.59375 0
0.0625 0.625 0
0.09375 0.625 0
0.09375 0.59375 0
0.125 0.59375 0
0.09375 0.625 0
0.125 0.625 0
0.125 0.5 0
0.15625 0.5 0
0.125 0.53125 0
0.15625 0.53125 0
0.15625 0.5 0
0.1875 0.5 0
0.15625 0.53125 0
0.1875 0.53125 0
0.125 0.53125 0
0.15625 0.53125 0
0.125 0.5625 0
0.15625 0.5625 0
0.15625 0.53125 0
0.1875 0.53125 0
0.15625 0.5625 0
0.1875 0.5625 0
0.1875 0.5 0
0.21875 0.5 0
0.1875 0.53125 0
0.21875 0.53125 0
0.21875 0.5 0
0.25 0.5 0
0.21875 0.53125 0
0.25 0.53125 0
0.1875 0.53125 0
0.21875 0.53125 0
0.1875 0.5625 0
0.21875 0.5625 0
0.21875 0.53125 0
0.25 0.53125 0
0.21875 0.5625 0
0.25 0.5625 0
0.125 0.5625 0
0.15625 0.5625 0
0.125 0.59375 0
0.15625 0.59375 0
0.15625 0.5625 0
0.1875 0.5625 0
0.15625 0.59375 0
0.1875 0.59375 0
0.125 0.59375 0
0.15625 0.59375 0
0.125 0.625 0
0.15625 0.625 0
0.15625 0.59375 0
0.1875 0.59375 0
0.15625 0.625 0
0.1875 0.625 0
0.1875 0.5625 0
0.21875 0.5625 0
0.1875 0.59375 0
0.21875 0.59375 0
0.21875 0.5625 0
0.25 0.5625 0
0.21875 0.59375 0
0.25 0.59375 0
0.1875 0.59375 0
0.21875 0.59375 0
0.1875 0.625 0
0.21875 0.625 0
0.21875 0.59375 0
0.25 0.59375 0
0.21875 0.625 0
0.25 0.625 0
0 0.625 0
0.03125 0.625 0
0 0.65625 0
0.03125 0.65625 0
0.03125 0.625 0
0.0625 0.625 0
0.03125 0.65625 0
0.0625 0.65625 0
0 0.65625 0
0.03125 0.65625 0
0 0.6875 0
0.03125 0.6875 0
0.03125 0.65625 0
0.0625 0.65625 0
0.03125 0.6875 0
0.0625 0.6875 0
0.0625 0.625 0
0.09375 0.625 0
0.0625 0.65625 0
0.09375 0.65625 0
0.09375 0.625 0
0.125 0.625 0
0.09375 0.65625 0
0.125 0.65625 0
0.0625 0.65625 0
0.09375 0.65625 0
0.0625 0.6875 0
0.09375 0.6875 0
0.09375 0.65625 0
0.125 0.65625 0
0.09375 0.6875 0
0.125 0.6875 0
0 0.6875 0
0.03125 0.6875 0
0 0.71875 0
0.03125 0.71875 0
0.03125 0.6875 0
0.0625 0.6875 0
0.03125 0.71875 0
0.0625 0.71875 0
0 0.71875 0
0.03125 0.71875 0
0 0.75 0
0.03125 0.75 0
0.03125 0.71875 0
0.0625 0.71875 0
0.03125 0.75 0
0.0625 0.75 0
0.0625 0.6875 0
0.09375 0.6875 0
0.0625 0.71875 0
0.09375 0.71875 0
0.09375 0.6875 0
0.125 0.6875 0
0.09375 0.71875 0
0.125 0.71875 0
0.0625 0.71875 0
0.09375 0.71875 0
0.0625 0.75 0
0.09375 0.75 0
0.09375 0.71875 0
0.125 0.71875 0
0.09375 0.75 0
0.125 0.75 0
0.125 0.625 0
0.15625 0.625 0
0.125 0.65625 0
0.15625 0.65625 0
0.15625 0.625 0
0.1875 0.625 0
0.15625 0.65625 0
0.1875 0.65625 0
0.125 0.65625 0
0.15625 0.65625 0
0.125 0.6875 0
0.15625 0.6875 0
0.15625 0.65625 0
0.1875 0.65625 0
0.15625 0.6875 0
0.1875 0.6875 0
0.1875 0.625 0
0.21875 0.625 0
0.1875 0.65625 0
0.21875 0.65625 0
0.21875 0.625 0
0.25 0.625 0
0.21875 0.65625 0
0.25 0.65625 0
0.1875 0.65625 0
0.21875 0.65625 0
0.1875 0.6875 0
0.21875 0.6875 0
0.21875 0.65625 0
0.25 0.65625 0
0.21875 0.6875 0
0.25 0.6875 0
0.125 0.6875 0
0.15625 0.6875 0
0.125 0.71875 0
0.15625 0.71875 0
0.15625 0.6875 0
0.1875 0.6875 0
0.15625 0.71875 0
0.1875 0.71875 0
0.125 0.71875 0
0.15625 0.71875 0
0.125 0.75 0
0.15625 0.75 0
0.15625 0.71875 0
0.1875 0.71875 0
0.15625 0.75 0
0.1875 0.75 0
0.1875 0.6875 0
0.21875 0.6875 0
0.1875 0.71875 0
0.21875 0.71875 0
0.21875 0.6875 0
0.25 0.6875 0
0.21875 0.71875 0
0.25 0.71875 0
0.1875 0.71875 0
0.21875 0.71875 0
0.1875 0.75 0
0.21875 0.75 0
0.21875 0.71875 0
0.25 0.71875 0
0.21875 0.75 0
0.25 0.75 0
0.25 0.5 0
0.28125 0.5 0
0.25 0.53125 0
0.28125 0.53125 0
0.28125 0.5 0
0.3125 0.5 0
0.28125 0.53125 0
0.3125 0.53125 0
0.25 0.53125 0
0.28125 0.53125 0
0.25 0.5625 0
0.28125 0.5625 0
0.28125 0.53125 0
0.3125 0.53125 0
0.28125 0.5625 0
0.3125 0.5625 0
0.3125 0.5 0
0.34375 0.5 0
0.3125 0.53125 0
0.34375 0.53125 0
0.34375 0.5 0
0.375 0.5 0
0.34375 0.53125 0
0.375 0.53125 0
0.3125 0.53125 0
0.34375 0.53125 0
0.3125 0.5625 0
0.34375 0.5625 0
0.34375 0.53125 0
0.375 0.53125 0
0.34375 0.5625 0
0.375 0.5625 0
0.25 0.5625 0
0.28125 0.5625 0
0.25 0.59375 0
0.28125 0.59375 0
0.28125 0.5625 0
0.3125 0.5625 0
0.28125 0.59375 0
0.3125 0.59375 0
0.25 0.59375 0
0.28125 0.59375 0
0.25 0.625 0
0.28125 0.625 0
0.28125 0.59375 0
0.3125 0.59375 0
0.28125 0.625 0
0.3125 0.625 0
0.3125 0.5625 0
0.34375 0.5625 0
0.3125 0.59375 0
0.34375 0.59375 0
0.34375 0.5625 0
0.375 0.5625 0
0.34375 0.59375 0
0.375 0.59375 0
0.3125 0.59375 0
0.34375 0.59375 0
0.3125 0.625 0
0.34375 0.625 0
0.34375 0.59375 0
0.375 0.59375 0
0.34375 0.625 0
0.375 0.625 0
0.375 0.5 0
0.40625 0.5 0
0.375 0.53125 0
0.40625 0.53125 0
0.40625 0.5 0
0.4375 0.5 0
0.40625 0.53125 0
0.4375 0.53125 0
0.375 0.53125 0
0.40625 0.53125 0
0.375 0.5625 0
0.40625 0.5625 0
0.40625 0.53125 0
0.4375 0.53125 0
0.40625 0.5625 0
0.4375 0.5625 0
0.4375 0.5 0
0.46875 0.5 0
0.4375 0.53125 0
0.46875 0.53125 0
0.46875 0.5 0
0.5 0.5 0
0.46875 0.53125 0
0.5 0.53125 0
0.4375 0.53125 0
0.46875 0.53125 0
0.4375 0.5625 0
0.46875 0.5625 0
0.46875 0.53125 0
0.5 0.53125 0
0.46875 0.5625 0
0.5 0.5625 0
0.375 0.5625 0
0.40625 0.5625 0
0.375 0.59375 0
0.40625 0.59375 0
0.40625 0.5625 0
0.4375 0.5625 0
0.40625 0.59375 0
0.4375 0.59375 0
0.375 0.59375 0
0.40625 0.59375 0
0.375 0.625 0
0.40625 0.625 0
0.40625 0.59375 0
0.4375 0.59375 0
0.40625 0.625 0
0.4375 0.625 0
0.4375 0.5625 0
0.46875 0.5625 0
0.4375 0.59375 0
0.46875 0.59375 0
0.46875 0.5625 0
0.5 0.5625 0
0.46875 0.59375 0
0.5 0.59375 0
0.4375 0.59375 0
0.46875 0.59375 0
0.4375 0.625 0
0.46875 0.625 0
0.46875 0.59375 0
0.5 0.59375 0
0.46875 0.625 0
0.5 0.625 0
0.25 0.625 0
0.28125 0.625 0
0.25 0.65625 0
0.28125 0.65625 0
0.28125 0.625 0
0.3125 0.625 0
0.28125 0.65625 0
0.3125 0.65625 0
0.25 0.65625 0
0.28125 0.65625 0
0.25 0.6875 0
0.28125 0.6875 0
0.28125 0.65625 0
0.3125 0.65625 0
0.28125 0.6875 0
0.3125 0.6875 0
0.3125 0.625 0
0.34375 0.625 0
0.3125 0.65625 0
0.34375 0.65625 0
0.34375 0.625 0
0.375 0.625 0
0.34375 0.65625 0
0.375 0.65625 0
0.3125 0.65625 0
0.34375 0.65625 0
0.3125 0.6875 0
0.34375 0.6875 0
0.34375 0.65625 0
0.375 0.65625 0
0.34375 0.6875 0
0.375 0.6875 0
0.25 0.6875 0
0.28125 0.6875 0
0.25 0.71875 0
0.28125 0.71875 0
0.28125 0.6875 0
0.3125 0.6875 0
0.28125 0.71875 0
0.3125 0.71875 0
0.25 0.71875 0
0.28125 0.71875 0
0.25 0.75 0
0.28125 0.75 0
0.28125 0.71875 0
0.3125 0.71875 0
0.28125 0.75 0
0.3125 0.75 0
0.3125 0.6875 0
0.34375 0.6875 0
0.3125 0.71875 0
0.34375 0.71875 0
0.34375 0.6875 0
0.375 0.6875 0
0.34375 0.71875 0
0.375 0.71875 0
0.3125 0.71875 0
0.34375 0.71875 0
0.3125 0.75 0
0.34375 0.75 0
0.34375 0.71875 0
0.375 0.71875 0
0.34375 0.75 0
0.375 0.75 0
0.375 0.625 0
0.40625 0.625 0
0.375 0.65625 0
0.40625 0.65625 0
0.40625 0.625 0
0.4375 0.625 0
0.40625 0.65625 0
0.4375 0.65625 0
0.375 0.65625 0
0.40625 0.65625 0
0.375 0.6875 0
0.40625 0.6875 0
0.40625 0.65625 0
0.4375 0.65625 0
0.40625 0.6875 0
0.4375 0.6875 0
0.4375 0.625 0
0.46875 0.625 0
0.4375 0.65625 0
0.46875 0.65625 0
0.46875 0.625 0
0.5 0.625 0
0.46875 0.65625 0
0.5 0.65625 0
0.4375 0.65625 0
0.46875 0.65625 0
0.4375 0.6875 0
0.46875 0.6875 0
0.46875 0.65625 0
0.5 0.65625 0
0.46875 0.6875 0
0.5 0.6875 0
0.375 0.6875 0
0.40625 0.6875 0
0.375 0.71875 0
0.40625 0.71875 0
0.40625 0.6875 0
0.4375 0.6875 0
0.40625 0.71875 0
0.4375 0.71875 0
0.375 0.71875 0
0.40625 0.71875 0
0.375 0.75 0
0.40625 0.75 0
0.40625 0.71875 0
0.4375 0.71875 0
0.40625 0.75 0
0.4375 0.75 0
0.4375 0.6875 0
0.46875 0.6875 0
0.4375 0.71875 0
0.46875 0.71875 0
0.46875 0.6875 0
0.5 0.6875 0
0.46875 0.71875 0
0.5 0.71875 0
0.4375 0.71875 0
0.46875 0.71875 0
0.4375 0.75 0
0.46875 0.75 0
0.46875 0.71875 0
0.5 0.71875 0
0.46875 0.75 0
0.5 0.75 0
0 0.75 0
0.03125 0.75 0
0 0.78125 0
0.03125 0.78125 0
0.03125 0.75 0
0.0625 0.75 0
0.03125 0.78125 0
0.0625 0.78125 0
0 0.78125 0
0.03125 0.78125 0
0 0.8125 0
0.03125 0.8125 0
0.03125 0.78125 0
0.0625 0.78125 0
0.03125 0.8125 0
0.0625 0.8125 0
0.0625 0.75 0
0.09375 0.75 0
0.0625 0.78125 0
0.09375 0.78125 0
0.09375 0.75 0
0.125 0.75 0
0.09375 0.78125 0
0.125 0.78125 0
0.0625 0.78125 0
0.09375 0.78125 0
0.0625 0.8125 0
0.09375 0.8125 0
0.09375 0.78125 0
0.125 0.78125 0
0.09375 0.8125 0
0.125 0.8125 0
0 0.8125 0
0.03125 0.8125 0
0 0.84375 0
0.03125 0.84375 0
0.03125 0.8125 0
0.0625 0.8125 0
0.03125 0.84375 0
0.0625 0.84375 0
0 0.84375 0
0.03125 0.84375 0
0 0.875 0
0.03125 0.875 0
0.03125 0.84375 0
0.0625 0.84375 0
0.03125 0.875 0
0.0625 0.875 0
0.0625 0.8125 0
0.09375 0.8125 0
0.0625 0.84375 0
0.09375 0.84375 0
0.09375 0.8125 0
0.125 0.8125 0
0.09375 0.84375 0
0.125 0.84375 0
0.0625 0.84375 0
0.09375 0.84375 0
0.0625 0.875 0
0.09375 0.875 0
0.09375 0.84375 0
0.125 0.84375 0
0.09375 0.875 0
0.125 0.875 0
0.125 0.75 0
0.15625 0.75 0
0.125 0.78125 0
0.15625 0.78125 0
0.15625 0.75 0
0.1875 0.75 0
0.15625 0.78125 0
0.1875 0.78125 0
0.125 0.78125 0
0.15625 0.78125 0
0.125 0.8125 0
0.15625 0.8125 0
0.15625 0.78125 0
0.1875 0.78125 0
0.15625 0.8125 0
0.1875 0.8125 0
0.1875 0.75 0
0.21875 0.75 0
0.1875 0.78125 0
0.21875 0.78125 0
0.21875 0.75 0
0.25 0.75 0
0.21875 0.78125 0
0.25 0.78125 0
0.1875 0.78125 0
0.21875 0.78125 0
0.1875 0.8125 0
0.21875 0.8125 0
0.21875 0.78125 0
0.25 0.78125 0
0.21875 0.8125 0
0.25 0.8125 0
0.125 0.8125 0
0.15625 0.8125 0
0.125 0.84375 0
0.15625 0.84375 0
0.15625 0.8125 0
[...]
POINT_DATA 4096
SCALARS x_dis double 1
LOOKUP_TABLE default
-1.30444e-14 -1.30444e-14 4.3473e-14 4.3473e-14 -1.30444e-14 -1.30444e-14 4.3473e-14 4.3473e-14 4.3473e-14 4.3473e-14 -1.34687e-13 -1.34687e-13 4.3473e-14 4.3473e-14 -1.34687e-13 -1.34687e-13 -1.30444e-14 -1.30444e-14 4.3473e-14 4.3473e-14 -1.30444e-14 -1.30444e-14 4.3473e-14 4.3473e-14 4.3473e-14 4.3473e-14 -1.34687e-13 -1.34687e-13 4.3473e-14 4.3473e-14 -1.34687e-13 -1.34687e-13 -1.34687e-13 -1.34687e-13 3.68531e-13 3.68532e-13 -1.34687e-13 -1.34687e-13 3.68532e-13 3.68531e-13 3.68531e-13 3.68532e-13 -7.59937e-13 -7.59937e-13 3.68532e-13 3.68531e-13 -7.59937e-13 -7.59937e-13 -1.34687e-13 -1.34687e-13 3.68531e-13 3.68532e-13 -1.34687e-13 -1.34687e-13 3.68532e-13 3.68531e-13 3.68531e-13 3.68532e-13 -7.59937e-13 -7.59937e-13 3.68532e-13 3.68531e-13 -7.59937e-13 -7.59937e-13 -1.30444e-14 -1.30444e-14 4.3473e-14 4.3473e-14 -1.30444e-14 -1.30444e-14 4.3473e-14 4.3473e-14 4.3473e-14 4.3473e-14 -1.34687e-13 -1.34687e-13 4.3473e-14 4.3473e-14 -1.34687e-13 -1.34687e-13 -1.30444e-14 -1.30444e-14 4.3473e-14 4.3473e-14 -1.30444e-14 -1.30444e-14 4.3473e-14 4.3473e-14 4.3473e-14 4.3473e-14 -1.34687e-13 -1.34687e-13 4.3473e-14 4.3473e-14 -1.34687e-13 -1.34687e-13 -1.34687e-13 -1.34687e-13 3.68531e-13 3.68532e-13 -1.34687e-13 -1.34687e-13 3.68532e-13 3.68531e-13 3.68531e-13 3.68532e-13 -7.59937e-13 -7.59937e-13 3.68532e-13 3.68531e-13 -7.59937e-13 -7.59937e-13 -1.34687e-13 -1.34687e-13 3.68531e-13 3.68531e-13 -1.34687e-13 -1.34687e-13 3.68531e-13 3.68531e-13 3.68531e-13 3.68531e-13 -7.59937e-13 -7.59937e-13 3.68531e-13 3.68531e-13 -7.59937e-13 -7.59937e-13 -7.59937e-13 -7.59937e-13 1.46658e-13 1.4666e-13 -7.59937e-13 -7.59937e-13 1.4666e-13 1.46657e-13 1.46658e-13 1.4666e-13 1.06738e-11 1.06737e-11 1.4666e-13 1.46657e-13 1.06737e-11 1.06738e-11 -7.59937e-13 -7.59937e-13 1.46657e-13 1.46659e-13 -7.59937e-13 -7.59937e-13 1.46659e-13 1.46658e-13 1.46657e-13 1.46659e-13 1.06738e-11 1.06737e-11 1.46659e-13 1.46658e-13 1.06737e-11 1.06738e-11 1.06738e-11 1.06737e-11 -8.43577e-11 -8.43577e-11 1.06737e-11 1.06738e-11 -8.43577e-11 -8.43577e-11 -8.43577e-11 -8.43577e-11 4.80735e-10 4.80734e-10 -8.43577e-11 -8.43577e-11 4.80734e-10 4.80735e-10 1.06738e-11 1.06737e-11 -8.43577e-11 -8.43577e-11 1.06737e-11 1.06738e-11 -8.43577e-11 -8.43577e-11 -8.43577e-11 -8.43577e-11 4.80735e-10 4.80734e-10 -8.43577e-11 -8.43577e-11 4.80734e-10 4.80734e-10 -7.59937e-13 -7.59937e-13 1.46658e-13 1.46659e-13 -7.59937e-13 -7.59937e-13 1.46659e-13 1.46658e-13 1.46658e-13 1.46659e-13 1.06738e-11 1.06738e-11 1.46659e-13 1.46658e-13 1.06738e-11 1.06738e-11 -7.59937e-13 -7.59937e-13 1.46658e-13 1.46658e-13 -7.59937e-13 -7.59937e-13 1.46658e-13 1.46658e-13 1.46658e-13 1.46658e-13 1.06738e-11 1.06738e-11 1.46658e-13 1.46658e-13 1.06738e-11 1.06738e-11 1.06738e-11 1.06738e-11 -8.43577e-11 -8.43577e-11 1.06738e-11 1.06738e-11 -8.43577e-11 -8.43577e-11 -8.43577e-11 -8.43577e-11 4.80734e-10 4.80734e-10 -8.43577e-11 -8.43577e-11 4.80734e-10 4.80734e-10 1.06738e-11 1.06738e-11 -8.43577e-11 -8.43577e-11 1.06738e-11 1.06738e-11 -8.43577e-11 -8.43577e-11 -8.43577e-11 -8.43577e-11 4.80734e-10 4.80734e-10 -8.43577e-11 -8.43577e-11 4.80734e-10 4.80734e-10 -1.30444e-14 -1.30444e-14 4.3473e-14 4.3473e-14 -1.30444e-14 -1.30444e-14 4.3473e-14 4.3473e-14 4.3473e-14 4.3473e-14 -1.34687e-13 -1.34687e-13 4.3473e-14 4.3473e-14 -1.34687e-13 -1.34687e-13 -1.30444e-14 -1.30444e-14 4.3473e-14 4.34731e-14 -1.30444e-14 -1.30444e-14 4.34731e-14 4.34729e-14 4.3473e-14 4.34731e-14 -1.34687e-13 -1.34687e-13 4.34731e-14 4.34729e-14 -1.34687e-13 -1.34687e-13 -1.34687e-13 -1.34687e-13 3.68531e-13 3.68531e-13 -1.34687e-13 -1.34687e-13 3.68531e-13 3.68531e-13 3.68531e-13 3.68531e-13 -7.59937e-13 -7.59937e-13 3.68531e-13 3.68531e-13 -7.59937e-13 -7.59937e-13 -1.34687e-13 -1.34687e-13 3.68531e-13 3.68532e-13 -1.34687e-13 -1.34687e-13 3.68532e-13 3.68531e-13 3.68531e-13 3.68532e-13 -7.59937e-13 -7.59937e-13 3.68532e-13 3.68531e-13 -7.59937e-13 -7.59937e-13 -1.30444e-14 -1.30444e-14 4.34729e-14 4.34734e-14 -1.30444e-14 -1.30444e-14 4.34734e-14 4.34729e-14 4.34729e-14 4.34734e-14 -1.34687e-13 -1.34686e-13 4.34734e-14 4.34729e-14 -1.34686e-13 -1.34689e-13 -1.30444e-14 -1.30445e-14 4.34729e-14 4.34651e-14 -1.30445e-14 -1.30444e-14 4.34651e-14 4.35488e-14 4.34729e-14 4.34651e-14 -1.34689e-13 -1.34677e-13 4.34651e-14 4.35488e-14 -1.34677e-13 -1.34713e-13 -1.34687e-13 -1.34686e-13 3.68531e-13 3.68531e-13 -1.34686e-13 -1.34689e-13 3.68531e-13 3.68533e-13 3.68531e-13 3.68531e-13 -7.59937e-13 -7.59937e-13 3.68531e-13 3.68533e-13 -7.59937e-13 -7.59937e-13 -1.34689e-13 -1.34677e-13 3.68533e-13 3.68527e-13 -1.34677e-13 -1.34713e-13 3.68527e-13 3.68538e-13 3.68533e-13 3.68527e-13 -7.59937e-13 -7.59936e-13 3.68527e-13 3.68538e-13 -7.59936e-13 -7.59939e-13 -7.59937e-13 -7.59937e-13 1.46658e-13 1.46658e-13 -7.59937e-13 -7.59937e-13 1.46658e-13 1.46658e-13 1.46658e-13 1.46658e-13 1.06738e-11 1.06738e-11 1.46658e-13 1.46658e-13 1.06738e-11 1.06738e-11 -7.59937e-13 -7.59937e-13 1.46658e-13 1.46658e-13 -7.59937e-13 -7.59937e-13 1.46658e-13 1.46658e-13 1.46658e-13 1.46658e-13 1.06738e-11 1.06738e-11 1.46658e-13 1.46658e-13 1.06738e-11 1.06738e-11 1.06738e-11 1.06738e-11 -8.43577e-11 -8.43577e-11 1.06738e-11 1.06738e-11 -8.43577e-11 -8.43577e-11 -8.43577e-11 -8.43577e-11 4.80734e-10 4.80734e-10 -8.43577e-11 -8.43577e-11 4.80734e-10 4.80734e-10 1.06738e-11 1.06738e-11 -8.43577e-11 -8.43577e-11 1.06738e-11 1.06738e-11 -8.43577e-11 -8.43577e-11 -8.43577e-11 -8.43577e-11 4.80734e-10 4.80734e-10 -8.43577e-11 -8.43577e-11 4.80734e-10 4.80734e-10 -7.59937e-13 -7.59937e-13 1.46658e-13 1.46658e-13 -7.59937e-13 -7.59937e-13 1.46658e-13 1.46659e-13 1.46658e-13 1.46658e-13 1.06738e-11 1.06738e-11 1.46658e-13 1.46659e-13 1.06738e-11 1.06738e-11 -7.59937e-13 -7.59936e-13 1.46659e-13 1.46658e-13 -7.59936e-13 -7.59939e-13 1.46658e-13 1.46659e-13 1.46659e-13 1.46658e-13 1.06738e-11 1.06738e-11 1.46658e-13 1.46659e-13 1.06738e-11 1.06738e-11 1.06738e-11 1.06738e-11 -8.43577e-11 -8.43577e-11 1.06738e-11 1.06738e-11 -8.43577e-11 -8.43577e-11 -8.43577e-11 -8.43577e-11 4.80734e-10 4.80734e-10 -8.43577e-11 -8.43577e-11 4.80734e-10 4.80734e-10 1.06738e-11 1.06738e-11 -8.43577e-11 -8.43577e-11 1.06738e-11 1.06738e-11 -8.43577e-11 -8.43577e-11 -8.43577e-11 -8.43577e-11 4.80734e-10 4.80734e-10 -8.43577e-11 -8.43577e-11 4.80734e-10 4.80734e-10 4.80735e-10 4.80734e-10 -2.35777e-09 -2.35777e-09 4.80734e-10 4.80735e-10 -2.35777e-09 -2.35777e-09 -2.35777e-09 -2.35777e-09 1.04125e-08 1.04125e-08 -2.35777e-09 -2.35777e-09 1.04125e-08 1.04125e-08 4.80735e-10 4.80734e-10 -2.35777e-09 -2.35777e-09 4.80734e-10 4.80734e-10 -2.35777e-09 -2.35777e-09 -2.35777e-09 -2.35777e-09 1.04125e-08 1.04125e-08 -2.35777e-09 -2.35777e-09 1.04125e-08 1.04125e-08 1.04125e-08 1.04125e-08 -4.1621e-08 -4.16209e-08 1.04125e-08 1.04125e-08 -4.16209e-08 -4.16209e-08 -4.1621e-08 -4.16209e-08 1.46401e-07 1.46401e-07 -4.16209e-08 -4.16209e-08 1.46401e-07 1.46401e-07 1.04125e-08 1.04125e-08 -4.16209e-08 -4.16209e-08 1.04125e-08 1.04125e-08 -4.16209e-08 -4.16209e-08 -4.16209e-08 -4.16209e-08 1.46401e-07 1.46401e-07 -4.16209e-08 -4.16209e-08 1.46401e-07 1.46401e-07 4.80734e-10 4.80734e-10 -2.35777e-09 -2.35777e-09 4.80734e-10 4.80734e-10 -2.35777e-09 -2.35777e-09 -2.35777e-09 -2.35777e-09 1.04125e-08 1.04125e-08 -2.35777e-09 -2.35777e-09 1.04125e-08 1.04125e-08 4.80734e-10 4.80734e-10 -2.35777e-09 -2.35777e-09 4.80734e-10 4.80734e-10 -2.35777e-09 -2.35777e-09 -2.35777e-09 -2.35777e-09 1.04125e-08 1.04125e-08 -2.35777e-09 -2.35777e-09 1.04125e-08 1.04125e-08 1.04125e-08 1.04125e-08 -4.16209e-08 -4.16209e-08 1.04125e-08 1.04125e-08 -4.16209e-08 -4.16209e-08 -4.16209e-08 -4.16209e-08 1.46401e-07 1.46401e-07 -4.16209e-08 -4.16209e-08 1.46401e-07 1.46401e-07 1.04125e-08 1.04125e-08 -4.16209e-08 -4.16209e-08 1.04125e-08 1.04125e-08 -4.16209e-08 -4.16209e-08 -4.16209e-08 -4.16209e-08 1.46401e-07 1.46401e-07 -4.16209e-08 -4.16209e-08 1.46401e-07 1.46401e-07 1.46401e-07 1.46401e-07 -4.06874e-07 -4.06873e-07 1.46401e-07 1.46401e-07 -4.06873e-07 -4.06873e-07 -4.06874e-07 -4.06873e-07 4.36409e-07 4.36406e-07 -4.06873e-07 -4.06873e-07 4.36406e-07 4.36407e-07 1.46401e-07 1.46401e-07 -4.06873e-07 -4.06873e-07 1.46401e-07 1.46401e-07 -4.06873e-07 -4.06873e-07 -4.06873e-07 -4.06873e-07 4.36407e-07 4.36406e-07 -4.06873e-07 -4.06873e-07 4.36406e-07 4.36406e-07 4.36409e-07 4.36406e-07 5.28947e-06 5.28949e-06 4.36406e-07 4.36407e-07 5.28949e-06 5.28948e-06 5.28947e-06 5.28949e-06 -6e-05 -6e-05 5.28949e-06 5.28948e-06 -6e-05 -6e-05 4.36407e-07 4.36406e-07 5.28948e-06 5.28948e-06 4.36406e-07 4.36406e-07 5.28948e-06 5.28948e-06 5.28948e-06 5.28948e-06 -6e-05 -6e-05 5.28948e-06 5.28948e-06 -6e-05 -6e-05 1.46401e-07 1.46401e-07 -4.06873e-07 -4.06873e-07 1.46401e-07 1.46401e-07 -4.06873e-07 -4.06873e-07 -4.06873e-07 -4.06873e-07 4.36406e-07 4.36406e-07 -4.06873e-07 -4.06873e-07 4.36406e-07 4.36406e-07 1.46401e-07 1.46401e-07 -4.06873e-07 -4.06873e-07 1.46401e-07 1.46401e-07 -4.06873e-07 -4.06873e-07 -4.06873e-07 -4.06873e-07 4.36406e-07 4.36406e-07 -4.06873e-07 -4.06873e-07 4.36406e-07 4.36406e-07 4.36406e-07 4.36406e-07 5.28948e-06 5.28948e-06 4.36406e-07 4.36406e-07 5.28948e-06 5.28948e-06 5.28948e-06 5.28948e-06 -6e-05 -6e-05 5.28948e-06 5.28948e-06 -6e-05 -6e-05 4.36406e-07 4.36406e-07 5.28948e-06 5.28948e-06 4.36406e-07 4.36406e-07 5.28948e-06 5.28948e-06 5.28948e-06 5.28948e-06 -6e-05 -6e-05 5.28948e-06 5.28948e-06 -6e-05 -6e-05 4.80734e-10 4.80734e-10 -2.35777e-09 -2.35777e-09 4.80734e-10 4.80734e-10 -2.35777e-09 -2.35777e-09 -2.35777e-09 -2.35777e-09 1.04125e-08 1.04125e-08 -2.35777e-09 -2.35777e-09 1.04125e-08 1.04125e-08 4.80734e-10 4.80734e-10 -2.35777e-09 -2.35777e-09 4.80734e-10 4.80734e-10 -2.35777e-09 -2.35777e-09 -2.35777e-09 -2.35777e-09 1.04125e-08 1.04125e-08 -2.35777e-09 -2.35777e-09 1.04125e-08 1.04125e-08 1.04125e-08 1.04125e-08 -4.16209e-08 -4.16209e-08 1.04125e-08 1.04125e-08 -4.16209e-08 -4.16209e-08 -4.16209e-08 -4.16209e-08 1.46401e-07 1.46401e-07 -4.16209e-08 -4.16209e-08 1.46401e-07 1.46401e-07 1.04125e-08 1.04125e-08 -4.16209e-08 -4.16209e-08 1.04125e-08 1.04125e-08 -4.16209e-08 -4.16209e-08 -4.16209e-08 -4.16209e-08 1.46401e-07 1.46401e-07 -4.16209e-08 -4.16209e-08 1.46401e-07 1.46401e-07 4.80734e-10 4.80734e-10 -2.35777e-09 -2.35777e-09 4.80734e-10 4.80734e-10 -2.35777e-09 -2.35777e-09 -2.35777e-09 -2.35777e-09 1.04125e-08 1.04125e-08 -2.35777e-09 -2.35777e-09 1.04125e-08 1.04125e-08 4.80734e-10 4.80734e-10 -2.35777e-09 -2.35777e-09 4.80734e-10 4.80734e-10 -2.35777e-09 -2.35777e-09 -2.35777e-09 -2.35777e-09 1.04125e-08 1.04125e-08 -2.35777e-09 -2.35777e-09 1.04125e-08 1.04125e-08 1.04125e-08 1.04125e-08 -4.16209e-08 -4.16209e-08 1.04125e-08 1.04125e-08 -4.16209e-08 -4.16209e-08 -4.16209e-08 -4.16209e-08 1.46401e-07 1.46401e-07 -4.16209e-08 -4.16209e-08 1.46401e-07 1.46401e-07 1.04125e-08 1.04125e-08 -4.16209e-08 -4.16209e-08 1.04125e-08 1.04125e-08 -4.16209e-08 -4.16209e-08 -4.16209e-08 -4.16209e-08 1.46401e-07 1.46401e-07 -4.16209e-08 -4.16209e-08 1.46401e-07 1.46401e-07 1.46401e-07 1.46401e-07 -4.06873e-07 -4.06873e-07 1.46401e-07 1.46401e-07 -4.06873e-07 -4.06873e-07 -4.06873e-07 -4.06873e-07 4.36406e-07 4.36406e-07 -4.06873e-07 -4.06873e-07 4.36406e-07 4.36406e-07 1.46401e-07 1.46401e-07 -4.06873e-07 -4.06873e-07 1.46401e-07 1.46401e-07 -4.06873e-07 -4.06873e-07 -4.06873e-07 -4.06873e-07 4.36406e-07 4.36406e-07 -4.06873e-07 -4.06873e-07 4.36406e-07 4.36406e-07 4.36406e-07 4.36406e-07 5.28948e-06 5.28948e-06 4.36406e-07 4.36406e-07 5.28948e-06 5.28948e-06 5.28948e-06 5.28948e-06 -6e-05 -6e-05 5.28948e-06 5.28948e-06 -6e-05 -6e-05 4.36406e-07 4.36406e-07 5.28948e-06 5.28948e-06 4.36406e-07 4.36406e-07 5.28948e-06 5.28948e-06 5.28948e-06 5.28948e-06 -6e-05 -6e-05 5.28948e-06 5.28948e-06 -6e-05 -6e-05 1.46401e-07 1.46401e-07 -4.06873e-07 -4.06873e-07 1.46401e-07 1.46401e-07 -4.06873e-07 -4.06873e-07 -4.06873e-07 -4.06873e-07 4.36406e-07 4.36406e-07 -4.06873e-07 -4.06873e-07 4.36406e-07 4.36406e-07 1.46401e-07 1.46401e-07 -4.06873e-07 -4.06873e-07 1.46401e-07 1.46401e-07 -4.06873e-07 -4.06873e-07 -4.06873e-07 -4.06873e-07 4.36406e-07 4.36406e-07 -4.06873e-07 -4.06873e-07 4.36406e-07 4.36406e-07 4.36406e-07 4.36406e-07 5.28948e-06 5.28948e-06 4.36406e-07 4.36406e-07 5.28948e-06 5.28948e-06 5.28948e-06 5.28948e-06 -6e-05 -6e-05 5.28948e-06 5.28948e-06 -6e-05 -6e-05 4.36406e-07 4.36406e-07 5.28948e-06 5.28948e-06 4.36406e-07 4.36406e-07 5.28948e-06 5.28948e-06 5.28948e-06 5.28948e-06 -6e-05 -6e-05 5.28948e-06 5.28948e-06 -6e-05 -6e-05 -1.30444e-14 -2.97635e-14 4.35488e-14 4.80606e-14 -2.97635e-14 -2.52931e-14 4.80606e-14 4.70258e-14 4.35488e-14 4.80606e-14 -1.34713e-13 -1.35922e-13 4.80606e-14 4.70258e-14 -1.35922e-13 -1.35679e-13 -2.52931e-14 -2.62208e-14 4.70258e-14 4.72243e-14 -2.62208e-14 -2.60768e-14 4.72243e-14 4.71938e-14 4.70258e-14 4.72243e-14 -1.35679e-13 -1.35713e-13 4.72243e-14 4.71938e-14 -1.35713e-13 -1.35711e-13 -1.34713e-13 -1.35922e-13 3.68538e-13 3.68857e-13 -1.35922e-13 -1.35679e-13 3.68857e-13 3.688e-13 3.68538e-13 3.68857e-13 -7.59939e-13 -7.60021e-13 3.68857e-13 3.688e-13 -7.60021e-13 -7.60007e-13 -1.35679e-13 -1.35713e-13 3.688e-13 3.68804e-13 -1.35713e-13 -1.35711e-13 3.68804e-13 3.68805e-13 3.688e-13 3.68804e-13 -7.60007e-13 -7.60008e-13 3.68804e-13 3.68805e-13 -7.60008e-13 -7.60008e-13 -2.60768e-14 -2.60866e-14 4.71938e-14 4.71965e-14 -2.60866e-14 -2.60906e-14 4.71965e-14 4.7197e-14 4.71938e-14 4.71965e-14 -1.35711e-13 -1.35711e-13 4.71965e-14 4.7197e-14 -1.35711e-13 -1.35711e-13 -2.60906e-14 -2.60882e-14 4.7197e-14 4.71966e-14 -2.60882e-14 -2.60891e-14 4.71966e-14 4.71967e-14 4.7197e-14 4.71966e-14 -1.35711e-13 -1.35711e-13 4.71966e-14 4.71967e-14 -1.35711e-13 -1.35711e-13 -1.35711e-13 -1.35711e-13 3.68805e-13 3.68804e-13 -1.35711e-13 -1.35711e-13 3.68804e-13 3.68804e-13 3.68805e-13 3.68804e-13 -7.60008e-13 -7.60008e-13 3.68804e-13 3.68804e-13 -7.60008e-13 -7.60008e-13 -1.35711e-13 -1.35711e-13 3.68804e-13 3.68804e-13 -1.35711e-13 -1.35711e-13 3.68804e-13 3.68804e-13 3.68804e-13 3.68804e-13 -7.60008e-13 -7.60008e-13 3.68804e-13 3.68804e-13 -7.60008e-13 -7.60008e-13 -7.59939e-13 -7.60021e-13 1.46659e-13 1.46679e-13 -7.60021e-13 -7.60007e-13 1.46679e-13 1.46676e-13 1.46659e-13 1.46679e-13 1.06738e-11 1.06737e-11 1.46679e-13 1.46676e-13 1.06737e-11 1.06737e-11 -7.60007e-13 -7.60008e-13 1.46676e-13 1.46676e-13 -7.60008e-13 -7.60008e-13 1.46676e-13 1.46676e-13 1.46676e-13 1.46676e-13 1.06737e-11 1.06737e-11 1.46676e-13 1.46676e-13 1.06737e-11 1.06737e-11 1.06738e-11 1.06737e-11 -8.43577e-11 -8.43577e-11 1.06737e-11 1.06737e-11 -8.43577e-11 -8.43577e-11 -8.43577e-11 -8.43577e-11 4.80734e-10 4.80734e-10 -8.43577e-11 -8.43577e-11 4.80734e-10 4.80734e-10 1.06737e-11 1.06737e-11 -8.43577e-11 -8.43577e-11 1.06737e-11 1.06737e-11 -8.43577e-11 -8.43577e-11 -8.43577e-11 -8.43577e-11 4.80734e-10 4.80734e-10 -8.43577e-11 -8.43577e-11 4.80734e-10 4.80734e-10 -7.60008e-13 -7.60008e-13 1.46676e-13 1.46676e-13 -7.60008e-13 -7.60008e-13 1.46676e-13 1.46676e-13 1.46676e-13 1.46676e-13 1.06737e-11 1.06737e-11 1.46676e-13 1.46676e-13 1.06737e-11 1.06737e-11 -7.60008e-13 -7.60008e-13 1.46676e-13 1.46676e-13 -7.60008e-13 -7.60008e-13 1.46676e-13 1.46676e-13 1.46676e-13 1.46676e-13 1.06737e-11 1.06737e-11 1.46676e-13 1.46676e-13 1.06737e-11 1.06737e-11 1.06737e-11 1.06737e-11 -8.43577e-11 -8.43577e-11 1.06737e-11 1.06737e-11 -8.43577e-11 -8.43577e-11 -8.43577e-11 -8.43577e-11 4.80734e-10 4.80734e-10 -8.43577e-11 -8.43577e-11 4.80734e-10 4.80734e-10 1.06737e-11 1.06737e-11 -8.43577e-11 -8.43577e-11 1.06737e-11 1.06737e-11 -8.43577e-11 -8.43577e-11 -8.43577e-11 -8.43577e-11 4.80734e-10 4.80734e-10 -8.43577e-11 -8.43577e-11 4.80734e-10 4.80734e-10 -2.60891e-14 -2.60888e-14 4.71967e-14 4.71967e-14 -2.60888e-14 -2.60889e-14 4.71967e-14 4.71967e-14 4.71967e-14 4.71967e-14 -1.35711e-13 -1.35711e-13 4.71967e-14 4.71967e-14 -1.35711e-13 -1.35711e-13 -2.60889e-14 -2.60889e-14 4.71967e-14 4.71967e-14 -2.60889e-14 -2.60889e-14 4.71967e-14 4.71967e-14 4.71967e-14 4.71967e-14 -1.35711e-13 -1.35711e-13 4.71967e-14 4.71967e-14 -1.35711e-13 -1.35711e-13 -1.35711e-13 -1.35711e-13 3.68804e-13 3.68804e-13 -1.35711e-13 -1.35711e-13 3.68804e-13 3.68804e-13 3.68804e-13 3.68804e-13 -7.60008e-13 -7.60008e-13 3.68804e-13 3.68804e-13 -7.60008e-13 -7.60008e-13 -1.35711e-13 -1.35711e-13 3.68804e-13 3.68804e-13 -1.35711e-13 -1.35711e-13 3.68804e-13 3.68804e-13 3.68804e-13 3.68804e-13 -7.60008e-13 -7.60008e-13 3.68804e-13 3.68804e-13 -7.60008e-13 -7.60008e-13 -2.60889e-14 -2.60889e-14 4.71967e-14 4.71967e-14 -2.60889e-14 -2.60889e-14 4.71967e-14 4.71967e-14 4.71967e-14 4.71967e-14 -1.35711e-13 -1.35711e-13 4.71967e-14 4.71967e-14 -1.35711e-13 -1.35711e-13 -2.60889e-14 -2.60889e-14 4.71967e-14 4.71967e-14 -2.60889e-14 -2.60889e-14 4.71967e-14 4.71967e-14 4.71967e-14 4.71967e-14 -1.35711e-13 -1.35711e-13 4.71967e-14 4.71967e-14 -1.35711e-13 -1.35711e-13 -1.35711e-13 -1.35711e-13 3.68804e-13 3.68804e-13 -1.35711e-13 -1.35711e-13 3.68804e-13 3.68805e-13 3.68804e-13 3.68804e-13 -7.60008e-13 -7.60008e-13 3.68804e-13 3.68805e-13 -7.60008e-13 -7.60008e-13 -1.35711e-13 -1.35711e-13 3.68805e-13 3.68804e-13 -1.35711e-13 -1.35711e-13 3.68804e-13 3.68804e-13 3.68805e-13 3.68804e-13 -7.60008e-13 -7.60008e-13 3.68804e-13 3.68804e-13 -7.60008e-13 -7.60008e-13 -7.60008e-13 -7.60008e-13 1.46676e-13 1.46676e-13 -7.60008e-13 -7.60008e-13 1.46676e-13 1.46677e-13 1.46676e-13 1.46676e-13 1.06737e-11 1.06737e-11 1.46676e-13 1.46677e-13 1.06737e-11 1.06737e-11 -7.60008e-13 -7.60008e-13 1.46677e-13 1.46676e-13 -7.60008e-13 -7.60008e-13 1.46676e-13 1.46677e-13 1.46677e-13 1.46676e-13 1.06737e-11 1.06737e-11 1.46676e-13 1.46677e-13 1.06737e-11 1.06737e-11 1.06737e-11 1.06737e-11 -8.43577e-11 -8.43577e-11 1.06737e-11 1.06737e-11 -8.43577e-11 -8.43577e-11 -8.43577e-11 -8.43577e-11 4.80734e-10 4.80734e-10 -8.43577e-11 -8.43577e-11 4.80734e-10 4.80734e-10 1.06737e-11 1.06737e-11 -8.43577e-11 -8.43577e-11 1.06737e-11 1.06737e-11 -8.43577e-11 -8.43577e-11 -8.43577e-11 -8.43577e-11 4.80734e-10 4.80734e-10 -8.43577e-11 -8.43577e-11 4.80734e-10 4.80734e-10 -7.60008e-13 -7.60008e-13 1.46677e-13 1.46675e-13 -7.60008e-13 -7.60008e-13 1.46675e-13 1.46678e-13 1.46677e-13 1.46675e-13 1.06737e-11 1.06738e-11 1.46675e-13 1.46678e-13 1.06738e-11 1.06737e-11 -7.60008e-13 -7.60008e-13 1.46678e-13 1.46675e-13 -7.60008e-13 -7.60008e-13 1.46675e-13 1.46677e-13 1.46678e-13 1.46675e-13 1.06737e-11 1.06738e-11 1.46675e-13 1.46677e-13 1.06738e-11 1.06737e-11 1.06737e-11 1.06738e-11 -8.43577e-11 -8.43577e-11 1.06738e-11 1.06737e-11 -8.43577e-11 -8.43577e-11 -8.43577e-11 -8.43577e-11 4.80734e-10 4.80735e-10 -8.43577e-11 -8.43577e-11 4.80735e-10 4.80734e-10 1.06737e-11 1.06738e-11 -8.43577e-11 -8.43577e-11 1.06738e-11 1.06737e-11 -8.43577e-11 -8.43577e-11 -8.43577e-11 -8.43577e-11 4.80734e-10 4.80735e-10 -8.43577e-11 -8.43577e-11 4.80735e-10 4.80734e-10 4.80734e-10 4.80734e-10 -2.35777e-09 -2.35777e-09 4.80734e-10 4.80734e-10 -2.35777e-09 -2.35777e-09 -2.35777e-09 -2.35777e-09 1.04125e-08 1.04125e-08 -2.35777e-09 -2.35777e-09 1.04125e-08 1.04125e-08 4.80734e-10 4.80734e-10 -2.35777e-09 -2.35777e-09 4.80734e-10 4.80734e-10 -2.35777e-09 -2.35777e-09 -2.35777e-09 -2.35777e-09 1.04125e-08 1.04125e-08 -2.35777e-09 -2.35777e-09 1.04125e-08 1.04125e-08 1.04125e-08 1.04125e-08 -4.16209e-08 -4.16209e-08 1.04125e-08 1.04125e-08 -4.16209e-08 -4.16209e-08 -4.16209e-08 -4.16209e-08 1.46401e-07 1.46401e-07 -4.16209e-08 -4.16209e-08 1.46401e-07 1.46401e-07 1.04125e-08 1.04125e-08 -4.16209e-08 -4.16209e-08 1.04125e-08 1.04125e-08 -4.16209e-08 -4.16209e-08 -4.16209e-08 -4.16209e-08 1.46401e-07 1.46401e-07 -4.16209e-08 -4.16209e-08 1.46401e-07 1.46401e-07 4.80734e-10 4.80734e-10 -2.35777e-09 -2.35777e-09 4.80734e-10 4.80734e-10 -2.35777e-09 -2.35777e-09 -2.35777e-09 -2.35777e-09 1.04125e-08 1.04125e-08 -2.35777e-09 -2.35777e-09 1.04125e-08 1.04125e-08 4.80734e-10 4.80734e-10 -2.35777e-09 -2.35777e-09 4.80734e-10 4.80734e-10 -2.35777e-09 -