# vtk DataFile Version 3.0
#This file was generated by the deal.II library on 2022/11/16 at 21:28:04
ASCII
DATASET UNSTRUCTURED_GRID

POINTS 4096 double
0 0.5 0
0.03125 0.5 0
0 0.53125 0
0.03125 0.53125 0
0.03125 0.5 0
0.0625 0.5 0
0.03125 0.53125 0
0.0625 0.53125 0
0 0.53125 0
0.03125 0.53125 0
0 0.5625 0
0.03125 0.5625 0
0.03125 0.53125 0
0.0625 0.53125 0
0.03125 0.5625 0
0.0625 0.5625 0
0.0625 0.5 0
0.09375 0.5 0
0.0625 0.53125 0
0.09375 0.53125 0
0.09375 0.5 0
0.125 0.5 0
0.09375 0.53125 0
0.125 0.53125 0
0.0625 0.53125 0
0.09375 0.53125 0
0.0625 0.5625 0
0.09375 0.5625 0
0.09375 0.53125 0
0.125 0.53125 0
0.09375 0.5625 0
0.125 0.5625 0
0 0.5625 0
0.03125 0.5625 0
0 0.59375 0
0.03125 0.59375 0
0.03125 0.5625 0
0.0625 0.5625 0
0.03125 0.59375 0
0.0625 0.59375 0
0 0.59375 0
0.03125 0.59375 0
0 0.625 0
0.03125 0.625 0
0.03125 0.59375 0
0.0625 0.59375 0
0.03125 0.625 0
0.0625 0.625 0
0.0625 0.5625 0
0.09375 0.5625 0
0.0625 0.59375 0
0.09375 0.59375 0
0.09375 0.5625 0
0.125 0.5625 0
0.09375 0.59375 0
0.125 0.59375 0
0.0625 0.59375 0
0.09375 0.59375 0
0.0625 0.625 0
0.09375 0.625 0
0.09375 0.59375 0
0.125 0.59375 0
0.09375 0.625 0
0.125 0.625 0
0.125 0.5 0
0.15625 0.5 0
0.125 0.53125 0
0.15625 0.53125 0
0.15625 0.5 0
0.1875 0.5 0
0.15625 0.53125 0
0.1875 0.53125 0
0.125 0.53125 0
0.15625 0.53125 0
0.125 0.5625 0
0.15625 0.5625 0
0.15625 0.53125 0
0.1875 0.53125 0
0.15625 0.5625 0
0.1875 0.5625 0
0.1875 0.5 0
0.21875 0.5 0
0.1875 0.53125 0
0.21875 0.53125 0
0.21875 0.5 0
0.25 0.5 0
0.21875 0.53125 0
0.25 0.53125 0
0.1875 0.53125 0
0.21875 0.53125 0
0.1875 0.5625 0
0.21875 0.5625 0
0.21875 0.53125 0
0.25 0.53125 0
0.21875 0.5625 0
0.25 0.5625 0
0.125 0.5625 0
0.15625 0.5625 0
0.125 0.59375 0
0.15625 0.59375 0
0.15625 0.5625 0
0.1875 0.5625 0
0.15625 0.59375 0
0.1875 0.59375 0
0.125 0.59375 0
0.15625 0.59375 0
0.125 0.625 0
0.15625 0.625 0
0.15625 0.59375 0
0.1875 0.59375 0
0.15625 0.625 0
0.1875 0.625 0
0.1875 0.5625 0
0.21875 0.5625 0
0.1875 0.59375 0
0.21875 0.59375 0
0.21875 0.5625 0
0.25 0.5625 0
0.21875 0.59375 0
0.25 0.59375 0
0.1875 0.59375 0
0.21875 0.59375 0
0.1875 0.625 0
0.21875 0.625 0
0.21875 0.59375 0
0.25 0.59375 0
0.21875 0.625 0
0.25 0.625 0
0 0.625 0
0.03125 0.625 0
0 0.65625 0
0.03125 0.65625 0
0.03125 0.625 0
0.0625 0.625 0
0.03125 0.65625 0
0.0625 0.65625 0
0 0.65625 0
0.03125 0.65625 0
0 0.6875 0
0.03125 0.6875 0
0.03125 0.65625 0
0.0625 0.65625 0
0.03125 0.6875 0
0.0625 0.6875 0
0.0625 0.625 0
0.09375 0.625 0
0.0625 0.65625 0
0.09375 0.65625 0
0.09375 0.625 0
0.125 0.625 0
0.09375 0.65625 0
0.125 0.65625 0
0.0625 0.65625 0
0.09375 0.65625 0
0.0625 0.6875 0
0.09375 0.6875 0
0.09375 0.65625 0
0.125 0.65625 0
0.09375 0.6875 0
0.125 0.6875 0
0 0.6875 0
0.03125 0.6875 0
0 0.71875 0
0.03125 0.71875 0
0.03125 0.6875 0
0.0625 0.6875 0
0.03125 0.71875 0
0.0625 0.71875 0
0 0.71875 0
0.03125 0.71875 0
0 0.75 0
0.03125 0.75 0
0.03125 0.71875 0
0.0625 0.71875 0
0.03125 0.75 0
0.0625 0.75 0
0.0625 0.6875 0
0.09375 0.6875 0
0.0625 0.71875 0
0.09375 0.71875 0
0.09375 0.6875 0
0.125 0.6875 0
0.09375 0.71875 0
0.125 0.71875 0
0.0625 0.71875 0
0.09375 0.71875 0
0.0625 0.75 0
0.09375 0.75 0
0.09375 0.71875 0
0.125 0.71875 0
0.09375 0.75 0
0.125 0.75 0
0.125 0.625 0
0.15625 0.625 0
0.125 0.65625 0
0.15625 0.65625 0
0.15625 0.625 0
0.1875 0.625 0
0.15625 0.65625 0
0.1875 0.65625 0
0.125 0.65625 0
0.15625 0.65625 0
0.125 0.6875 0
0.15625 0.6875 0
0.15625 0.65625 0
0.1875 0.65625 0
0.15625 0.6875 0
0.1875 0.6875 0
0.1875 0.625 0
0.21875 0.625 0
0.1875 0.65625 0
0.21875 0.65625 0
0.21875 0.625 0
0.25 0.625 0
0.21875 0.65625 0
0.25 0.65625 0
0.1875 0.65625 0
0.21875 0.65625 0
0.1875 0.6875 0
0.21875 0.6875 0
0.21875 0.65625 0
0.25 0.65625 0
0.21875 0.6875 0
0.25 0.6875 0
0.125 0.6875 0
0.15625 0.6875 0
0.125 0.71875 0
0.15625 0.71875 0
0.15625 0.6875 0
0.1875 0.6875 0
0.15625 0.71875 0
0.1875 0.71875 0
0.125 0.71875 0
0.15625 0.71875 0
0.125 0.75 0
0.15625 0.75 0
0.15625 0.71875 0
0.1875 0.71875 0
0.15625 0.75 0
0.1875 0.75 0
0.1875 0.6875 0
0.21875 0.6875 0
0.1875 0.71875 0
0.21875 0.71875 0
0.21875 0.6875 0
0.25 0.6875 0
0.21875 0.71875 0
0.25 0.71875 0
0.1875 0.71875 0
0.21875 0.71875 0
0.1875 0.75 0
0.21875 0.75 0
0.21875 0.71875 0
0.25 0.71875 0
0.21875 0.75 0
0.25 0.75 0
0.25 0.5 0
0.28125 0.5 0
0.25 0.53125 0
0.28125 0.53125 0
0.28125 0.5 0
0.3125 0.5 0
0.28125 0.53125 0
0.3125 0.53125 0
0.25 0.53125 0
0.28125 0.53125 0
0.25 0.5625 0
0.28125 0.5625 0
0.28125 0.53125 0
0.3125 0.53125 0
0.28125 0.5625 0
0.3125 0.5625 0
0.3125 0.5 0
0.34375 0.5 0
0.3125 0.53125 0
0.34375 0.53125 0
0.34375 0.5 0
0.375 0.5 0
0.34375 0.53125 0
0.375 0.53125 0
0.3125 0.53125 0
0.34375 0.53125 0
0.3125 0.5625 0
0.34375 0.5625 0
0.34375 0.53125 0
0.375 0.53125 0
0.34375 0.5625 0
0.375 0.5625 0
0.25 0.5625 0
0.28125 0.5625 0
0.25 0.59375 0
0.28125 0.59375 0
0.28125 0.5625 0
0.3125 0.5625 0
0.28125 0.59375 0
0.3125 0.59375 0
0.25 0.59375 0
0.28125 0.59375 0
0.25 0.625 0
0.28125 0.625 0
0.28125 0.59375 0
0.3125 0.59375 0
0.28125 0.625 0
0.3125 0.625 0
0.3125 0.5625 0
0.34375 0.5625 0
0.3125 0.59375 0
0.34375 0.59375 0
0.34375 0.5625 0
0.375 0.5625 0
0.34375 0.59375 0
0.375 0.59375 0
0.3125 0.59375 0
0.34375 0.59375 0
0.3125 0.625 0
0.34375 0.625 0
0.34375 0.59375 0
0.375 0.59375 0
0.34375 0.625 0
0.375 0.625 0
0.375 0.5 0
0.40625 0.5 0
0.375 0.53125 0
0.40625 0.53125 0
0.40625 0.5 0
0.4375 0.5 0
0.40625 0.53125 0
0.4375 0.53125 0
0.375 0.53125 0
0.40625 0.53125 0
0.375 0.5625 0
0.40625 0.5625 0
0.40625 0.53125 0
0.4375 0.53125 0
0.40625 0.5625 0
0.4375 0.5625 0
0.4375 0.5 0
0.46875 0.5 0
0.4375 0.53125 0
0.46875 0.53125 0
0.46875 0.5 0
0.5 0.5 0
0.46875 0.53125 0
0.5 0.53125 0
0.4375 0.53125 0
0.46875 0.53125 0
0.4375 0.5625 0
0.46875 0.5625 0
0.46875 0.53125 0
0.5 0.53125 0
0.46875 0.5625 0
0.5 0.5625 0
0.375 0.5625 0
0.40625 0.5625 0
0.375 0.59375 0
0.40625 0.59375 0
0.40625 0.5625 0
0.4375 0.5625 0
0.40625 0.59375 0
0.4375 0.59375 0
0.375 0.59375 0
0.40625 0.59375 0
0.375 0.625 0
0.40625 0.625 0
0.40625 0.59375 0
0.4375 0.59375 0
0.40625 0.625 0
0.4375 0.625 0
0.4375 0.5625 0
0.46875 0.5625 0
0.4375 0.59375 0
0.46875 0.59375 0
0.46875 0.5625 0
0.5 0.5625 0
0.46875 0.59375 0
0.5 0.59375 0
0.4375 0.59375 0
0.46875 0.59375 0
0.4375 0.625 0
0.46875 0.625 0
0.46875 0.59375 0
0.5 0.59375 0
0.46875 0.625 0
0.5 0.625 0
0.25 0.625 0
0.28125 0.625 0
0.25 0.65625 0
0.28125 0.65625 0
0.28125 0.625 0
0.3125 0.625 0
0.28125 0.65625 0
0.3125 0.65625 0
0.25 0.65625 0
0.28125 0.65625 0
0.25 0.6875 0
0.28125 0.6875 0
0.28125 0.65625 0
0.3125 0.65625 0
0.28125 0.6875 0
0.3125 0.6875 0
0.3125 0.625 0
0.34375 0.625 0
0.3125 0.65625 0
0.34375 0.65625 0
0.34375 0.625 0
0.375 0.625 0
0.34375 0.65625 0
0.375 0.65625 0
0.3125 0.65625 0
0.34375 0.65625 0
0.3125 0.6875 0
0.34375 0.6875 0
0.34375 0.65625 0
0.375 0.65625 0
0.34375 0.6875 0
0.375 0.6875 0
0.25 0.6875 0
0.28125 0.6875 0
0.25 0.71875 0
0.28125 0.71875 0
0.28125 0.6875 0
0.3125 0.6875 0
0.28125 0.71875 0
0.3125 0.71875 0
0.25 0.71875 0
0.28125 0.71875 0
0.25 0.75 0
0.28125 0.75 0
0.28125 0.71875 0
0.3125 0.71875 0
0.28125 0.75 0
0.3125 0.75 0
0.3125 0.6875 0
0.34375 0.6875 0
0.3125 0.71875 0
0.34375 0.71875 0
0.34375 0.6875 0
0.375 0.6875 0
0.34375 0.71875 0
0.375 0.71875 0
0.3125 0.71875 0
0.34375 0.71875 0
0.3125 0.75 0
0.34375 0.75 0
0.34375 0.71875 0
0.375 0.71875 0
0.34375 0.75 0
0.375 0.75 0
0.375 0.625 0
0.40625 0.625 0
0.375 0.65625 0
0.40625 0.65625 0
0.40625 0.625 0
0.4375 0.625 0
0.40625 0.65625 0
0.4375 0.65625 0
0.375 0.65625 0
0.40625 0.65625 0
0.375 0.6875 0
0.40625 0.6875 0
0.40625 0.65625 0
0.4375 0.65625 0
0.40625 0.6875 0
0.4375 0.6875 0
0.4375 0.625 0
0.46875 0.625 0
0.4375 0.65625 0
0.46875 0.65625 0
0.46875 0.625 0
0.5 0.625 0
0.46875 0.65625 0
0.5 0.65625 0
0.4375 0.65625 0
0.46875 0.65625 0
0.4375 0.6875 0
0.46875 0.6875 0
0.46875 0.65625 0
0.5 0.65625 0
0.46875 0.6875 0
0.5 0.6875 0
0.375 0.6875 0
0.40625 0.6875 0
0.375 0.71875 0
0.40625 0.71875 0
0.40625 0.6875 0
0.4375 0.6875 0
0.40625 0.71875 0
0.4375 0.71875 0
0.375 0.71875 0
0.40625 0.71875 0
0.375 0.75 0
0.40625 0.75 0
0.40625 0.71875 0
0.4375 0.71875 0
0.40625 0.75 0
0.4375 0.75 0
0.4375 0.6875 0
0.46875 0.6875 0
0.4375 0.71875 0
0.46875 0.71875 0
0.46875 0.6875 0
0.5 0.6875 0
0.46875 0.71875 0
0.5 0.71875 0
0.4375 0.71875 0
0.46875 0.71875 0
0.4375 0.75 0
0.46875 0.75 0
0.46875 0.71875 0
0.5 0.71875 0
0.46875 0.75 0
0.5 0.75 0
0 0.75 0
0.03125 0.75 0
0 0.78125 0
0.03125 0.78125 0
0.03125 0.75 0
0.0625 0.75 0
0.03125 0.78125 0
0.0625 0.78125 0
0 0.78125 0
0.03125 0.78125 0
0 0.8125 0
0.03125 0.8125 0
0.03125 0.78125 0
0.0625 0.78125 0
0.03125 0.8125 0
0.0625 0.8125 0
0.0625 0.75 0
0.09375 0.75 0
0.0625 0.78125 0
0.09375 0.78125 0
0.09375 0.75 0
0.125 0.75 0
0.09375 0.78125 0
0.125 0.78125 0
0.0625 0.78125 0
0.09375 0.78125 0
0.0625 0.8125 0
0.09375 0.8125 0
0.09375 0.78125 0
0.125 0.78125 0
0.09375 0.8125 0
0.125 0.8125 0
0 0.8125 0
0.03125 0.8125 0
0 0.84375 0
0.03125 0.84375 0
0.03125 0.8125 0
0.0625 0.8125 0
0.03125 0.84375 0
0.0625 0.84375 0
0 0.84375 0
0.03125 0.84375 0
0 0.875 0
0.03125 0.875 0
0.03125 0.84375 0
0.0625 0.84375 0
0.03125 0.875 0
0.0625 0.875 0
0.0625 0.8125 0
0.09375 0.8125 0
0.0625 0.84375 0
0.09375 0.84375 0
0.09375 0.8125 0
0.125 0.8125 0
0.09375 0.84375 0
0.125 0.84375 0
0.0625 0.84375 0
0.09375 0.84375 0
0.0625 0.875 0
0.09375 0.875 0
0.09375 0.84375 0
0.125 0.84375 0
0.09375 0.875 0
0.125 0.875 0
0.125 0.75 0
0.15625 0.75 0
0.125 0.78125 0
0.15625 0.78125 0
0.15625 0.75 0
0.1875 0.75 0
0.15625 0.78125 0
0.1875 0.78125 0
0.125 0.78125 0
0.15625 0.78125 0
0.125 0.8125 0
0.15625 0.8125 0
0.15625 0.78125 0
0.1875 0.78125 0
0.15625 0.8125 0
0.1875 0.8125 0
0.1875 0.75 0
0.21875 0.75 0
0.1875 0.78125 0
0.21875 0.78125 0
0.21875 0.75 0
0.25 0.75 0
0.21875 0.78125 0
0.25 0.78125 0
0.1875 0.78125 0
0.21875 0.78125 0
0.1875 0.8125 0
0.21875 0.8125 0
0.21875 0.78125 0
0.25 0.78125 0
0.21875 0.8125 0
0.25 0.8125 0
0.125 0.8125 0
0.15625 0.8125 0
0.125 0.84375 0
0.15625 0.84375 0
0.15625 0.8125 0
[...]
POINT_DATA 4096
SCALARS x_dis double 1
LOOKUP_TABLE default
9.57706e-06 9.5773e-06 1.70704e-06 1.70739e-06 9.5773e-06 9.57801e-06 1.70739e-06 1.70837e-06 1.70704e-06 1.70739e-06 -3.66445e-05 -3.6644e-05 1.70739e-06 1.70837e-06 -3.6644e-05 -3.66426e-05 9.57801e-06 9.5791e-06 1.70837e-06 1.70987e-06 9.5791e-06 9.58051e-06 1.70987e-06 1.71176e-06 1.70837e-06 1.70987e-06 -3.66426e-05 -3.66405e-05 1.70987e-06 1.71176e-06 -3.66405e-05 -3.6638e-05 -3.66445e-05 -3.6644e-05 -0.000106778 -0.000106777 -3.6644e-05 -3.66426e-05 -0.000106777 -0.000106775 -0.000106778 -0.000106777 -0.000199092 -0.00019909 -0.000106777 -0.000106775 -0.00019909 -0.000199087 -3.66426e-05 -3.66405e-05 -0.000106775 -0.000106772 -3.66405e-05 -3.6638e-05 -0.000106772 -0.000106769 -0.000106775 -0.000106772 -0.000199087 -0.000199083 -0.000106772 -0.000106769 -0.000199083 -0.000199079 9.58051e-06 9.58212e-06 1.71176e-06 1.71382e-06 9.58212e-06 9.58384e-06 1.71382e-06 1.71586e-06 1.71176e-06 1.71382e-06 -3.6638e-05 -3.66354e-05 1.71382e-06 1.71586e-06 -3.66354e-05 -3.66329e-05 9.58384e-06 9.58559e-06 1.71586e-06 1.71792e-06 9.58559e-06 9.58738e-06 1.71792e-06 1.72046e-06 1.71586e-06 1.71792e-06 -3.66329e-05 -3.66304e-05 1.71792e-06 1.72046e-06 -3.66304e-05 -3.66272e-05 -3.6638e-05 -3.66354e-05 -0.000106769 -0.000106766 -3.66354e-05 -3.66329e-05 -0.000106766 -0.000106763 -0.000106769 -0.000106766 -0.000199079 -0.000199075 -0.000106766 -0.000106763 -0.000199075 -0.000199071 -3.66329e-05 -3.66304e-05 -0.000106763 -0.00010676 -3.66304e-05 -3.66272e-05 -0.00010676 -0.000106756 -0.000106763 -0.00010676 -0.000199071 -0.000199067 -0.00010676 -0.000106756 -0.000199067 -0.000199063 -0.000199092 -0.00019909 -0.000302746 -0.000302742 -0.00019909 -0.000199087 -0.000302742 -0.000302738 -0.000302746 -0.000302742 -0.000410874 -0.000410869 -0.000302742 -0.000302738 -0.000410869 -0.000410863 -0.000199087 -0.000199083 -0.000302738 -0.000302733 -0.000199083 -0.000199079 -0.000302733 -0.000302728 -0.000302738 -0.000302733 -0.000410863 -0.000410857 -0.000302733 -0.000302728 -0.000410857 -0.000410851 -0.000410874 -0.000410869 -0.00052039 -0.000520383 -0.000410869 -0.000410863 -0.000520383 -0.000520375 -0.00052039 -0.000520383 -0.000630257 -0.000630248 -0.000520383 -0.000520375 -0.000630248 -0.000630239 -0.000410863 -0.000410857 -0.000520375 -0.000520368 -0.000410857 -0.000410851 -0.000520368 -0.000520361 -0.000520375 -0.000520368 -0.000630239 -0.00063023 -0.000520368 -0.000520361 -0.00063023 -0.000630222 -0.000199079 -0.000199075 -0.000302728 -0.000302723 -0.000199075 -0.000199071 -0.000302723 -0.000302718 -0.000302728 -0.000302723 -0.000410851 -0.000410845 -0.000302723 -0.000302718 -0.000410845 -0.000410839 -0.000199071 -0.000199067 -0.000302718 -0.000302714 -0.000199067 -0.000199063 -0.000302714 -0.00030271 -0.000302718 -0.000302714 -0.000410839 -0.000410834 -0.000302714 -0.00030271 -0.000410834 -0.000410829 -0.000410851 -0.000410845 -0.000520361 -0.000520354 -0.000410845 -0.000410839 -0.000520354 -0.000520348 -0.000520361 -0.000520354 -0.000630222 -0.000630215 -0.000520354 -0.000520348 -0.000630215 -0.000630208 -0.000410839 -0.000410834 -0.000520348 -0.000520342 -0.000410834 -0.000410829 -0.000520342 -0.000520337 -0.000520348 -0.000520342 -0.000630208 -0.000630201 -0.000520342 -0.000520337 -0.000630201 -0.000630196 9.58738e-06 9.58932e-06 1.72046e-06 1.72444e-06 9.58932e-06 9.59135e-06 1.72444e-06 1.7304e-06 1.72046e-06 1.72444e-06 -3.66272e-05 -3.6622e-05 1.72444e-06 1.7304e-06 -3.6622e-05 -3.66144e-05 9.59135e-06 9.59279e-06 1.7304e-06 1.73158e-06 9.59279e-06 9.5928e-06 1.73158e-06 1.70668e-06 1.7304e-06 1.73158e-06 -3.66144e-05 -3.66111e-05 1.73158e-06 1.70668e-06 -3.66111e-05 -3.66341e-05 -3.66272e-05 -3.6622e-05 -0.000106756 -0.00010675 -3.6622e-05 -3.66144e-05 -0.00010675 -0.000106743 -0.000106756 -0.00010675 -0.000199063 -0.000199058 -0.00010675 -0.000106743 -0.000199058 -0.00019905 -3.66144e-05 -3.66111e-05 -0.000106743 -0.000106738 -3.66111e-05 -3.66341e-05 -0.000106738 -0.000106748 -0.000106743 -0.000106738 -0.00019905 -0.000199044 -0.000106738 -0.000106748 -0.000199044 -0.000199047 9.5928e-06 9.59251e-06 1.70668e-06 1.64281e-06 9.59251e-06 9.59553e-06 1.64281e-06 1.61226e-06 1.70668e-06 1.64281e-06 -3.66341e-05 -3.66999e-05 1.64281e-06 1.61226e-06 -3.66999e-05 -3.67763e-05 9.59553e-06 9.59919e-06 1.61226e-06 1.85814e-06 9.59919e-06 9.59715e-06 1.85814e-06 3.00037e-06 1.61226e-06 1.85814e-06 -3.67763e-05 -3.67939e-05 1.85814e-06 3.00037e-06 -3.67939e-05 -3.70758e-05 -3.66341e-05 -3.66999e-05 -0.000106748 -0.000106776 -3.66999e-05 -3.67763e-05 -0.000106776 -0.000106809 -0.000106748 -0.000106776 -0.000199047 -0.000199058 -0.000106776 -0.000106809 -0.000199058 -0.000199063 -3.67763e-05 -3.67939e-05 -0.000106809 -0.000106889 -3.67939e-05 -3.70758e-05 -0.000106889 -0.000107055 -0.000106809 -0.000106889 -0.000199063 -0.000199029 -0.000106889 -0.000107055 -0.000199029 -0.00019894 -0.000199063 -0.000199058 -0.00030271 -0.000302705 -0.000199058 -0.00019905 -0.000302705 -0.000302698 -0.00030271 -0.000302705 -0.000410829 -0.000410825 -0.000302705 -0.000302698 -0.000410825 -0.000410819 -0.00019905 -0.000199044 -0.000302698 -0.00030269 -0.000199044 -0.000199047 -0.00030269 -0.000302685 -0.000302698 -0.00030269 -0.000410819 -0.000410812 -0.00030269 -0.000302685 -0.000410812 -0.000410803 -0.000410829 -0.000410825 -0.000520337 -0.000520332 -0.000410825 -0.000410819 -0.000520332 -0.000520327 -0.000520337 -0.000520332 -0.000630196 -0.00063019 -0.000520332 -0.000520327 -0.00063019 -0.000630186 -0.000410819 -0.000410812 -0.000520327 -0.000520322 -0.000410812 -0.000410803 -0.000520322 -0.000520316 -0.000520327 -0.000520322 -0.000630186 -0.000630181 -0.000520322 -0.000520316 -0.000630181 -0.000630177 -0.000199047 -0.000199058 -0.000302685 -0.00030269 -0.000199058 -0.000199063 -0.00030269 -0.0003027 -0.000302685 -0.00030269 -0.000410803 -0.000410796 -0.00030269 -0.0003027 -0.000410796 -0.000410798 -0.000199063 -0.000199029 -0.0003027 -0.000302691 -0.000199029 -0.00019894 -0.000302691 -0.000302644 -0.0003027 -0.000302691 -0.000410798 -0.000410809 -0.000302691 -0.000302644 -0.000410809 -0.000410826 -0.000410803 -0.000410796 -0.000520316 -0.000520307 -0.000410796 -0.000410798 -0.000520307 -0.000520298 -0.000520316 -0.000520307 -0.000630177 -0.000630173 -0.000520307 -0.000520298 -0.000630173 -0.000630168 -0.000410798 -0.000410809 -0.000520298 -0.000520294 -0.000410809 -0.000410826 -0.000520294 -0.000520298 -0.000520298 -0.000520294 -0.000630168 -0.000630161 -0.000520294 -0.000520298 -0.000630161 -0.000630155 -0.000630257 -0.000630248 -0.000740198 -0.000740187 -0.000630248 -0.000630239 -0.000740187 -0.000740177 -0.000740198 -0.000740187 -0.000850157 -0.000850144 -0.000740187 -0.000740177 -0.000850144 -0.000850132 -0.000630239 -0.00063023 -0.000740177 -0.000740167 -0.00063023 -0.000630222 -0.000740167 -0.000740158 -0.000740177 -0.000740167 -0.000850132 -0.000850121 -0.000740167 -0.000740158 -0.000850121 -0.000850111 -0.000850157 -0.000850144 -0.000960124 -0.000960109 -0.000850144 -0.000850132 -0.000960109 -0.000960095 -0.000960124 -0.000960109 -0.0010701 -0.00107008 -0.000960109 -0.000960095 -0.00107008 -0.00107007 -0.000850132 -0.000850121 -0.000960095 -0.000960083 -0.000850121 -0.000850111 -0.000960083 -0.000960073 -0.000960095 -0.000960083 -0.00107007 -0.00107005 -0.000960083 -0.000960073 -0.00107005 -0.00107004 -0.000630222 -0.000630215 -0.000740158 -0.00074015 -0.000630215 -0.000630208 -0.00074015 -0.000740142 -0.000740158 -0.00074015 -0.000850111 -0.000850102 -0.00074015 -0.000740142 -0.000850102 -0.000850094 -0.000630208 -0.000630201 -0.000740142 -0.000740136 -0.000630201 -0.000630196 -0.000740136 -0.00074013 -0.000740142 -0.000740136 -0.000850094 -0.000850088 -0.000740136 -0.00074013 -0.000850088 -0.000850082 -0.000850111 -0.000850102 -0.000960073 -0.000960064 -0.000850102 -0.000850094 -0.000960064 -0.000960056 -0.000960073 -0.000960064 -0.00107004 -0.00107003 -0.000960064 -0.000960056 -0.00107003 -0.00107003 -0.000850094 -0.000850088 -0.000960056 -0.00096005 -0.000850088 -0.000850082 -0.00096005 -0.000960044 -0.000960056 -0.00096005 -0.00107003 -0.00107002 -0.00096005 -0.000960044 -0.00107002 -0.00107002 -0.0010701 -0.00107008 -0.00118008 -0.00118006 -0.00107008 -0.00107007 -0.00118006 -0.00118004 -0.00118008 -0.00118006 -0.00129006 -0.00129004 -0.00118006 -0.00118004 -0.00129004 -0.00129002 -0.00107007 -0.00107005 -0.00118004 -0.00118003 -0.00107005 -0.00107004 -0.00118003 -0.00118002 -0.00118004 -0.00118003 -0.00129002 -0.00129001 -0.00118003 -0.00118002 -0.00129001 -0.00129 -0.00129006 -0.00129004 -0.00140005 -0.00140002 -0.00129004 -0.00129002 -0.00140002 -0.00140001 -0.00140005 -0.00140002 -0.00151 -0.00151 -0.00140002 -0.00140001 -0.00151 -0.00151 -0.00129002 -0.00129001 -0.00140001 -0.0014 -0.00129001 -0.00129 -0.0014 -0.0014 -0.00140001 -0.0014 -0.00151 -0.00151 -0.0014 -0.0014 -0.00151 -0.00151 -0.00107004 -0.00107003 -0.00118002 -0.00118001 -0.00107003 -0.00107003 -0.00118001 -0.00118001 -0.00118002 -0.00118001 -0.00129 -0.00129 -0.00118001 -0.00118001 -0.00129 -0.00128999 -0.00107003 -0.00107002 -0.00118001 -0.00118 -0.00107002 -0.00107002 -0.00118 -0.00118 -0.00118001 -0.00118 -0.00128999 -0.00128999 -0.00118 -0.00118 -0.00128999 -0.00128999 -0.00129 -0.00129 -0.0014 -0.0014 -0.00129 -0.00128999 -0.0014 -0.00139999 -0.0014 -0.0014 -0.00151 -0.00151 -0.0014 -0.00139999 -0.00151 -0.00151 -0.00128999 -0.00128999 -0.00139999 -0.00139999 -0.00128999 -0.00128999 -0.00139999 -0.00139999 -0.00139999 -0.00139999 -0.00151 -0.00151 -0.00139999 -0.00139999 -0.00151 -0.00151 -0.000630196 -0.00063019 -0.00074013 -0.000740124 -0.00063019 -0.000630186 -0.000740124 -0.00074012 -0.00074013 -0.000740124 -0.000850082 -0.000850077 -0.000740124 -0.00074012 -0.000850077 -0.000850072 -0.000630186 -0.000630181 -0.00074012 -0.000740115 -0.000630181 -0.000630177 -0.000740115 -0.000740111 -0.00074012 -0.000740115 -0.000850072 -0.000850068 -0.000740115 -0.000740111 -0.000850068 -0.000850064 -0.000850082 -0.000850077 -0.000960044 -0.00096004 -0.000850077 -0.000850072 -0.00096004 -0.000960035 -0.000960044 -0.00096004 -0.00107002 -0.00107001 -0.00096004 -0.000960035 -0.00107001 -0.00107001 -0.000850072 -0.000850068 -0.000960035 -0.000960031 -0.000850068 -0.000850064 -0.000960031 -0.000960028 -0.000960035 -0.000960031 -0.00107001 -0.00107 -0.000960031 -0.000960028 -0.00107 -0.00107 -0.000630177 -0.000630173 -0.000740111 -0.000740108 -0.000630173 -0.000630168 -0.000740108 -0.000740105 -0.000740111 -0.000740108 -0.000850064 -0.00085006 -0.000740108 -0.000740105 -0.00085006 -0.000850056 -0.000630168 -0.000630161 -0.000740105 -0.000740102 -0.000630161 -0.000630155 -0.000740102 -0.000740099 -0.000740105 -0.000740102 -0.000850056 -0.000850053 -0.000740102 -0.000740099 -0.000850053 -0.000850049 -0.000850064 -0.00085006 -0.000960028 -0.000960024 -0.00085006 -0.000850056 -0.000960024 -0.000960021 -0.000960028 -0.000960024 -0.00107 -0.00107 -0.000960024 -0.000960021 -0.00107 -0.00107 -0.000850056 -0.000850053 -0.000960021 -0.000960017 -0.000850053 -0.000850049 -0.000960017 -0.000960014 -0.000960021 -0.000960017 -0.00107 -0.00106999 -0.000960017 -0.000960014 -0.00106999 -0.00106999 -0.00107002 -0.00107001 -0.00118 -0.00117999 -0.00107001 -0.00107001 -0.00117999 -0.00117999 -0.00118 -0.00117999 -0.00128999 -0.00128999 -0.00117999 -0.00117999 -0.00128999 -0.00128998 -0.00107001 -0.00107 -0.00117999 -0.00117999 -0.00107 -0.00107 -0.00117999 -0.00117999 -0.00117999 -0.00117999 -0.00128998 -0.00128998 -0.00117999 -0.00117999 -0.00128998 -0.00128998 -0.00128999 -0.00128999 -0.00139999 -0.00139999 -0.00128999 -0.00128998 -0.00139999 -0.00139999 -0.00139999 -0.00139999 -0.00151 -0.00151 -0.00139999 -0.00139999 -0.00151 -0.00151 -0.00128998 -0.00128998 -0.00139999 -0.00139999 -0.00128998 -0.00128998 -0.00139999 -0.00139999 -0.00139999 -0.00139999 -0.00151 -0.00151 -0.00139999 -0.00139999 -0.00151 -0.00151 -0.00107 -0.00107 -0.00117999 -0.00117998 -0.00107 -0.00107 -0.00117998 -0.00117998 -0.00117999 -0.00117998 -0.00128998 -0.00128998 -0.00117998 -0.00117998 -0.00128998 -0.00128998 -0.00107 -0.00106999 -0.00117998 -0.00117998 -0.00106999 -0.00106999 -0.00117998 -0.00117998 -0.00117998 -0.00117998 -0.00128998 -0.00128998 -0.00117998 -0.00117998 -0.00128998 -0.00128997 -0.00128998 -0.00128998 -0.00139999 -0.00139999 -0.00128998 -0.00128998 -0.00139999 -0.00139998 -0.00139999 -0.00139999 -0.00151 -0.00151 -0.00139999 -0.00139998 -0.00151 -0.00151 -0.00128998 -0.00128998 -0.00139998 -0.00139998 -0.00128998 -0.00128997 -0.00139998 -0.00139998 -0.00139998 -0.00139998 -0.00151 -0.00151 -0.00139998 -0.00139998 -0.00151 -0.00151 9.59715e-06 1.57599e-05 3.00037e-06 3.65981e-06 1.57599e-05 1.88149e-05 3.65981e-06 4.56547e-06 3.00037e-06 3.65981e-06 -3.70758e-05 -3.75429e-05 3.65981e-06 4.56547e-06 -3.75429e-05 -3.79854e-05 1.88149e-05 1.96397e-05 4.56547e-06 4.93303e-06 1.96397e-05 1.9577e-05 4.93303e-06 4.79113e-06 4.56547e-06 4.93303e-06 -3.79854e-05 -3.81437e-05 4.93303e-06 4.79113e-06 -3.81437e-05 -3.82672e-05 -3.70758e-05 -3.75429e-05 -0.000107055 -0.000107283 -3.75429e-05 -3.79854e-05 -0.000107283 -0.000107404 -0.000107055 -0.000107283 -0.00019894 -0.000198798 -0.000107283 -0.000107404 -0.000198798 -0.000198651 -3.79854e-05 -3.81437e-05 -0.000107404 -0.00010742 -3.81437e-05 -3.82672e-05 -0.00010742 -0.000107422 -0.000107404 -0.00010742 -0.000198651 -0.000198564 -0.00010742 -0.000107422 -0.000198564 -0.000198561 1.9577e-05 1.93512e-05 4.79113e-06 4.53016e-06 1.93512e-05 1.9193e-05 4.53016e-06 4.40335e-06 4.79113e-06 4.53016e-06 -3.82672e-05 -3.83921e-05 4.53016e-06 4.40335e-06 -3.83921e-05 -3.84478e-05 1.9193e-05 1.91542e-05 4.40335e-06 4.40643e-06 1.91542e-05 1.91892e-05 4.40643e-06 4.44429e-06 4.40335e-06 4.40643e-06 -3.84478e-05 -3.84394e-05 4.40643e-06 4.44429e-06 -3.84394e-05 -3.84169e-05 -3.82672e-05 -3.83921e-05 -0.000107422 -0.000107458 -3.83921e-05 -3.84478e-05 -0.000107458 -0.000107483 -0.000107422 -0.000107458 -0.000198561 -0.000198592 -0.000107458 -0.000107483 -0.000198592 -0.000198608 -3.84478e-05 -3.84394e-05 -0.000107483 -0.000107481 -3.84394e-05 -3.84169e-05 -0.000107481 -0.000107467 -0.000107483 -0.000107481 -0.000198608 -0.000198601 -0.000107481 -0.000107467 -0.000198601 -0.000198587 -0.00019894 -0.000198798 -0.000302644 -0.000302573 -0.000198798 -0.000198651 -0.000302573 -0.000302526 -0.000302644 -0.000302573 -0.000410826 -0.00041085 -0.000302573 -0.000302526 -0.00041085 -0.000410879 -0.000198651 -0.000198564 -0.000302526 -0.000302531 -0.000198564 -0.000198561 -0.000302531 -0.000302563 -0.000302526 -0.000302531 -0.000410879 -0.000410905 -0.000302531 -0.000302563 -0.000410905 -0.000410914 -0.000410826 -0.00041085 -0.000520298 -0.000520305 -0.00041085 -0.000410879 -0.000520305 -0.00052031 -0.000520298 -0.000520305 -0.000630155 -0.000630148 -0.000520305 -0.00052031 -0.000630148 -0.00063014 -0.000410879 -0.000410905 -0.00052031 -0.000520306 -0.000410905 -0.000410914 -0.000520306 -0.000520294 -0.00052031 -0.000520306 -0.00063014 -0.000630132 -0.000520306 -0.000520294 -0.000630132 -0.000630126 -0.000198561 -0.000198592 -0.000302563 -0.000302582 -0.000198592 -0.000198608 -0.000302582 -0.000302577 -0.000302563 -0.000302582 -0.000410914 -0.000410905 -0.000302582 -0.000302577 -0.000410905 -0.000410891 -0.000198608 -0.000198601 -0.000302577 -0.000302562 -0.000198601 -0.000198587 -0.000302562 -0.000302551 -0.000302577 -0.000302562 -0.000410891 -0.00041088 -0.000302562 -0.000302551 -0.00041088 -0.000410875 -0.000410914 -0.000410905 -0.000520294 -0.000520282 -0.000410905 -0.000410891 -0.000520282 -0.000520274 -0.000520294 -0.000520282 -0.000630126 -0.000630122 -0.000520282 -0.000520274 -0.000630122 -0.000630119 -0.000410891 -0.00041088 -0.000520274 -0.00052027 -0.00041088 -0.000410875 -0.00052027 -0.000520266 -0.000520274 -0.00052027 -0.000630119 -0.000630115 -0.00052027 -0.000520266 -0.000630115 -0.00063011 1.91892e-05 1.92229e-05 4.44429e-06 4.46555e-06 1.92229e-05 1.92311e-05 4.46555e-06 4.46886e-06 4.44429e-06 4.46555e-06 -3.84169e-05 -3.84043e-05 4.46555e-06 4.46886e-06 -3.84043e-05 -3.84006e-05 1.92311e-05 1.9229e-05 4.46886e-06 4.4673e-06 1.9229e-05 1.92292e-05 4.4673e-06 4.46818e-06 4.46886e-06 4.4673e-06 -3.84006e-05 -3.83998e-05 4.4673e-06 4.46818e-06 -3.83998e-05 -3.83984e-05 -3.84169e-05 -3.84043e-05 -0.000107467 -0.000107456 -3.84043e-05 -3.84006e-05 -0.000107456 -0.000107451 -0.000107467 -0.000107456 -0.000198587 -0.000198577 -0.000107456 -0.000107451 -0.000198577 -0.000198574 -3.84006e-05 -3.83998e-05 -0.000107451 -0.000107449 -3.83998e-05 -3.83984e-05 -0.000107449 -0.000107448 -0.000107451 -0.000107449 -0.000198574 -0.000198572 -0.000107449 -0.000107448 -0.000198572 -0.000198569 1.92292e-05 1.92325e-05 4.46818e-06 4.47116e-06 1.92325e-05 1.92358e-05 4.47116e-06 4.47383e-06 4.46818e-06 4.47116e-06 -3.83984e-05 -3.83959e-05 4.47116e-06 4.47383e-06 -3.83959e-05 -3.83935e-05 1.92358e-05 1.92377e-05 4.47383e-06 4.47528e-06 1.92377e-05 1.92382e-05 4.47528e-06 4.4757e-06 4.47383e-06 4.47528e-06 -3.83935e-05 -3.83918e-05 4.47528e-06 4.4757e-06 -3.83918e-05 -3.83912e-05 -3.83984e-05 -3.83959e-05 -0.000107448 -0.000107445 -3.83959e-05 -3.83935e-05 -0.000107445 -0.000107442 -0.000107448 -0.000107445 -0.000198569 -0.000198565 -0.000107445 -0.000107442 -0.000198565 -0.000198562 -3.83935e-05 -3.83918e-05 -0.000107442 -0.00010744 -3.83918e-05 -3.83912e-05 -0.00010744 -0.000107439 -0.000107442 -0.00010744 -0.000198562 -0.000198559 -0.00010744 -0.000107439 -0.000198559 -0.000198556 -0.000198587 -0.000198577 -0.000302551 -0.000302546 -0.000198577 -0.000198574 -0.000302546 -0.000302543 -0.000302551 -0.000302546 -0.000410875 -0.000410871 -0.000302546 -0.000302543 -0.000410871 -0.000410867 -0.000198574 -0.000198572 -0.000302543 -0.00030254 -0.000198572 -0.000198569 -0.00030254 -0.000302536 -0.000302543 -0.00030254 -0.000410867 -0.000410862 -0.00030254 -0.000302536 -0.000410862 -0.000410856 -0.000410875 -0.000410871 -0.000520266 -0.000520261 -0.000410871 -0.000410867 -0.000520261 -0.000520255 -0.000520266 -0.000520261 -0.00063011 -0.000630104 -0.000520261 -0.000520255 -0.000630104 -0.000630098 -0.000410867 -0.000410862 -0.000520255 -0.000520249 -0.000410862 -0.000410856 -0.000520249 -0.000520243 -0.000520255 -0.000520249 -0.000630098 -0.000630091 -0.000520249 -0.000520243 -0.000630091 -0.000630084 -0.000198569 -0.000198565 -0.000302536 -0.000302531 -0.000198565 -0.000198562 -0.000302531 -0.000302526 -0.000302536 -0.000302531 -0.000410856 -0.00041085 -0.000302531 -0.000302526 -0.00041085 -0.000410844 -0.000198562 -0.000198559 -0.000302526 -0.000302522 -0.000198559 -0.000198556 -0.000302522 -0.000302518 -0.000302526 -0.000302522 -0.000410844 -0.000410839 -0.000302522 -0.000302518 -0.000410839 -0.000410833 -0.000410856 -0.00041085 -0.000520243 -0.000520236 -0.00041085 -0.000410844 -0.000520236 -0.000520228 -0.000520243 -0.000520236 -0.000630084 -0.000630076 -0.000520236 -0.000520228 -0.000630076 -0.000630067 -0.000410844 -0.000410839 -0.000520228 -0.000520221 -0.000410839 -0.000410833 -0.000520221 -0.000520214 -0.000520228 -0.000520221 -0.000630067 -0.000630058 -0.000520221 -0.000520214 -0.000630058 -0.00063005 -0.000630155 -0.000630148 -0.000740099 -0.000740095 -0.000630148 -0.00063014 -0.000740095 -0.000740091 -0.000740099 -0.000740095 -0.000850049 -0.000850046 -0.000740095 -0.000740091 -0.000850046 -0.000850043 -0.00063014 -0.000630132 -0.000740091 -0.000740089 -0.000630132 -0.000630126 -0.000740089 -0.000740086 -0.000740091 -0.000740089 -0.000850043 -0.000850039 -0.000740089 -0.000740086 -0.000850039 -0.000850035 -0.000850049 -0.000850046 -0.000960014 -0.00096001 -0.000850046 -0.000850043 -0.00096001 -0.000960006 -0.000960014 -0.00096001 -0.00106999 -0.00106999 -0.00096001 -0.000960006 -0.00106999 -0.00106998 -0.000850043 -0.000850039 -0.000960006 -0.000960003 -0.000850039 -0.000850035 -0.000960003 -0.000959999 -0.000960006 -0.000960003 -0.00106998 -0.00106998 -0.000960003 -0.000959999 -0.00106998 -0.00106998 -0.000630126 -0.00063