# vtk DataFile Version 3.0
#This file was generated by the deal.II library on 2022/11/16 at 21:15:35
ASCII
DATASET UNSTRUCTURED_GRID

POINTS 4096 double
0 0.5 0
0.03125 0.5 0
0 0.53125 0
0.03125 0.53125 0
0.03125 0.5 0
0.0625 0.5 0
0.03125 0.53125 0
0.0625 0.53125 0
0 0.53125 0
0.03125 0.53125 0
0 0.5625 0
0.03125 0.5625 0
0.03125 0.53125 0
0.0625 0.53125 0
0.03125 0.5625 0
0.0625 0.5625 0
0.0625 0.5 0
0.09375 0.5 0
0.0625 0.53125 0
0.09375 0.53125 0
0.09375 0.5 0
0.125 0.5 0
0.09375 0.53125 0
0.125 0.53125 0
0.0625 0.53125 0
0.09375 0.53125 0
0.0625 0.5625 0
0.09375 0.5625 0
0.09375 0.53125 0
0.125 0.53125 0
0.09375 0.5625 0
0.125 0.5625 0
0 0.5625 0
0.03125 0.5625 0
0 0.59375 0
0.03125 0.59375 0
0.03125 0.5625 0
0.0625 0.5625 0
0.03125 0.59375 0
0.0625 0.59375 0
0 0.59375 0
0.03125 0.59375 0
0 0.625 0
0.03125 0.625 0
0.03125 0.59375 0
0.0625 0.59375 0
0.03125 0.625 0
0.0625 0.625 0
0.0625 0.5625 0
0.09375 0.5625 0
0.0625 0.59375 0
0.09375 0.59375 0
0.09375 0.5625 0
0.125 0.5625 0
0.09375 0.59375 0
0.125 0.59375 0
0.0625 0.59375 0
0.09375 0.59375 0
0.0625 0.625 0
0.09375 0.625 0
0.09375 0.59375 0
0.125 0.59375 0
0.09375 0.625 0
0.125 0.625 0
0.125 0.5 0
0.15625 0.5 0
0.125 0.53125 0
0.15625 0.53125 0
0.15625 0.5 0
0.1875 0.5 0
0.15625 0.53125 0
0.1875 0.53125 0
0.125 0.53125 0
0.15625 0.53125 0
0.125 0.5625 0
0.15625 0.5625 0
0.15625 0.53125 0
0.1875 0.53125 0
0.15625 0.5625 0
0.1875 0.5625 0
0.1875 0.5 0
0.21875 0.5 0
0.1875 0.53125 0
0.21875 0.53125 0
0.21875 0.5 0
0.25 0.5 0
0.21875 0.53125 0
0.25 0.53125 0
0.1875 0.53125 0
0.21875 0.53125 0
0.1875 0.5625 0
0.21875 0.5625 0
0.21875 0.53125 0
0.25 0.53125 0
0.21875 0.5625 0
0.25 0.5625 0
0.125 0.5625 0
0.15625 0.5625 0
0.125 0.59375 0
0.15625 0.59375 0
0.15625 0.5625 0
0.1875 0.5625 0
0.15625 0.59375 0
0.1875 0.59375 0
0.125 0.59375 0
0.15625 0.59375 0
0.125 0.625 0
0.15625 0.625 0
0.15625 0.59375 0
0.1875 0.59375 0
0.15625 0.625 0
0.1875 0.625 0
0.1875 0.5625 0
0.21875 0.5625 0
0.1875 0.59375 0
0.21875 0.59375 0
0.21875 0.5625 0
0.25 0.5625 0
0.21875 0.59375 0
0.25 0.59375 0
0.1875 0.59375 0
0.21875 0.59375 0
0.1875 0.625 0
0.21875 0.625 0
0.21875 0.59375 0
0.25 0.59375 0
0.21875 0.625 0
0.25 0.625 0
0 0.625 0
0.03125 0.625 0
0 0.65625 0
0.03125 0.65625 0
0.03125 0.625 0
0.0625 0.625 0
0.03125 0.65625 0
0.0625 0.65625 0
0 0.65625 0
0.03125 0.65625 0
0 0.6875 0
0.03125 0.6875 0
0.03125 0.65625 0
0.0625 0.65625 0
0.03125 0.6875 0
0.0625 0.6875 0
0.0625 0.625 0
0.09375 0.625 0
0.0625 0.65625 0
0.09375 0.65625 0
0.09375 0.625 0
0.125 0.625 0
0.09375 0.65625 0
0.125 0.65625 0
0.0625 0.65625 0
0.09375 0.65625 0
0.0625 0.6875 0
0.09375 0.6875 0
0.09375 0.65625 0
0.125 0.65625 0
0.09375 0.6875 0
0.125 0.6875 0
0 0.6875 0
0.03125 0.6875 0
0 0.71875 0
0.03125 0.71875 0
0.03125 0.6875 0
0.0625 0.6875 0
0.03125 0.71875 0
0.0625 0.71875 0
0 0.71875 0
0.03125 0.71875 0
0 0.75 0
0.03125 0.75 0
0.03125 0.71875 0
0.0625 0.71875 0
0.03125 0.75 0
0.0625 0.75 0
0.0625 0.6875 0
0.09375 0.6875 0
0.0625 0.71875 0
0.09375 0.71875 0
0.09375 0.6875 0
0.125 0.6875 0
0.09375 0.71875 0
0.125 0.71875 0
0.0625 0.71875 0
0.09375 0.71875 0
0.0625 0.75 0
0.09375 0.75 0
0.09375 0.71875 0
0.125 0.71875 0
0.09375 0.75 0
0.125 0.75 0
0.125 0.625 0
0.15625 0.625 0
0.125 0.65625 0
0.15625 0.65625 0
0.15625 0.625 0
0.1875 0.625 0
0.15625 0.65625 0
0.1875 0.65625 0
0.125 0.65625 0
0.15625 0.65625 0
0.125 0.6875 0
0.15625 0.6875 0
0.15625 0.65625 0
0.1875 0.65625 0
0.15625 0.6875 0
0.1875 0.6875 0
0.1875 0.625 0
0.21875 0.625 0
0.1875 0.65625 0
0.21875 0.65625 0
0.21875 0.625 0
0.25 0.625 0
0.21875 0.65625 0
0.25 0.65625 0
0.1875 0.65625 0
0.21875 0.65625 0
0.1875 0.6875 0
0.21875 0.6875 0
0.21875 0.65625 0
0.25 0.65625 0
0.21875 0.6875 0
0.25 0.6875 0
0.125 0.6875 0
0.15625 0.6875 0
0.125 0.71875 0
0.15625 0.71875 0
0.15625 0.6875 0
0.1875 0.6875 0
0.15625 0.71875 0
0.1875 0.71875 0
0.125 0.71875 0
0.15625 0.71875 0
0.125 0.75 0
0.15625 0.75 0
0.15625 0.71875 0
0.1875 0.71875 0
0.15625 0.75 0
0.1875 0.75 0
0.1875 0.6875 0
0.21875 0.6875 0
0.1875 0.71875 0
0.21875 0.71875 0
0.21875 0.6875 0
0.25 0.6875 0
0.21875 0.71875 0
0.25 0.71875 0
0.1875 0.71875 0
0.21875 0.71875 0
0.1875 0.75 0
0.21875 0.75 0
0.21875 0.71875 0
0.25 0.71875 0
0.21875 0.75 0
0.25 0.75 0
0.25 0.5 0
0.28125 0.5 0
0.25 0.53125 0
0.28125 0.53125 0
0.28125 0.5 0
0.3125 0.5 0
0.28125 0.53125 0
0.3125 0.53125 0
0.25 0.53125 0
0.28125 0.53125 0
0.25 0.5625 0
0.28125 0.5625 0
0.28125 0.53125 0
0.3125 0.53125 0
0.28125 0.5625 0
0.3125 0.5625 0
0.3125 0.5 0
0.34375 0.5 0
0.3125 0.53125 0
0.34375 0.53125 0
0.34375 0.5 0
0.375 0.5 0
0.34375 0.53125 0
0.375 0.53125 0
0.3125 0.53125 0
0.34375 0.53125 0
0.3125 0.5625 0
0.34375 0.5625 0
0.34375 0.53125 0
0.375 0.53125 0
0.34375 0.5625 0
0.375 0.5625 0
0.25 0.5625 0
0.28125 0.5625 0
0.25 0.59375 0
0.28125 0.59375 0
0.28125 0.5625 0
0.3125 0.5625 0
0.28125 0.59375 0
0.3125 0.59375 0
0.25 0.59375 0
0.28125 0.59375 0
0.25 0.625 0
0.28125 0.625 0
0.28125 0.59375 0
0.3125 0.59375 0
0.28125 0.625 0
0.3125 0.625 0
0.3125 0.5625 0
0.34375 0.5625 0
0.3125 0.59375 0
0.34375 0.59375 0
0.34375 0.5625 0
0.375 0.5625 0
0.34375 0.59375 0
0.375 0.59375 0
0.3125 0.59375 0
0.34375 0.59375 0
0.3125 0.625 0
0.34375 0.625 0
0.34375 0.59375 0
0.375 0.59375 0
0.34375 0.625 0
0.375 0.625 0
0.375 0.5 0
0.40625 0.5 0
0.375 0.53125 0
0.40625 0.53125 0
0.40625 0.5 0
0.4375 0.5 0
0.40625 0.53125 0
0.4375 0.53125 0
0.375 0.53125 0
0.40625 0.53125 0
0.375 0.5625 0
0.40625 0.5625 0
0.40625 0.53125 0
0.4375 0.53125 0
0.40625 0.5625 0
0.4375 0.5625 0
0.4375 0.5 0
0.46875 0.5 0
0.4375 0.53125 0
0.46875 0.53125 0
0.46875 0.5 0
0.5 0.5 0
0.46875 0.53125 0
0.5 0.53125 0
0.4375 0.53125 0
0.46875 0.53125 0
0.4375 0.5625 0
0.46875 0.5625 0
0.46875 0.53125 0
0.5 0.53125 0
0.46875 0.5625 0
0.5 0.5625 0
0.375 0.5625 0
0.40625 0.5625 0
0.375 0.59375 0
0.40625 0.59375 0
0.40625 0.5625 0
0.4375 0.5625 0
0.40625 0.59375 0
0.4375 0.59375 0
0.375 0.59375 0
0.40625 0.59375 0
0.375 0.625 0
0.40625 0.625 0
0.40625 0.59375 0
0.4375 0.59375 0
0.40625 0.625 0
0.4375 0.625 0
0.4375 0.5625 0
0.46875 0.5625 0
0.4375 0.59375 0
0.46875 0.59375 0
0.46875 0.5625 0
0.5 0.5625 0
0.46875 0.59375 0
0.5 0.59375 0
0.4375 0.59375 0
0.46875 0.59375 0
0.4375 0.625 0
0.46875 0.625 0
0.46875 0.59375 0
0.5 0.59375 0
0.46875 0.625 0
0.5 0.625 0
0.25 0.625 0
0.28125 0.625 0
0.25 0.65625 0
0.28125 0.65625 0
0.28125 0.625 0
0.3125 0.625 0
0.28125 0.65625 0
0.3125 0.65625 0
0.25 0.65625 0
0.28125 0.65625 0
0.25 0.6875 0
0.28125 0.6875 0
0.28125 0.65625 0
0.3125 0.65625 0
0.28125 0.6875 0
0.3125 0.6875 0
0.3125 0.625 0
0.34375 0.625 0
0.3125 0.65625 0
0.34375 0.65625 0
0.34375 0.625 0
0.375 0.625 0
0.34375 0.65625 0
0.375 0.65625 0
0.3125 0.65625 0
0.34375 0.65625 0
0.3125 0.6875 0
0.34375 0.6875 0
0.34375 0.65625 0
0.375 0.65625 0
0.34375 0.6875 0
0.375 0.6875 0
0.25 0.6875 0
0.28125 0.6875 0
0.25 0.71875 0
0.28125 0.71875 0
0.28125 0.6875 0
0.3125 0.6875 0
0.28125 0.71875 0
0.3125 0.71875 0
0.25 0.71875 0
0.28125 0.71875 0
0.25 0.75 0
0.28125 0.75 0
0.28125 0.71875 0
0.3125 0.71875 0
0.28125 0.75 0
0.3125 0.75 0
0.3125 0.6875 0
0.34375 0.6875 0
0.3125 0.71875 0
0.34375 0.71875 0
0.34375 0.6875 0
0.375 0.6875 0
0.34375 0.71875 0
0.375 0.71875 0
0.3125 0.71875 0
0.34375 0.71875 0
0.3125 0.75 0
0.34375 0.75 0
0.34375 0.71875 0
0.375 0.71875 0
0.34375 0.75 0
0.375 0.75 0
0.375 0.625 0
0.40625 0.625 0
0.375 0.65625 0
0.40625 0.65625 0
0.40625 0.625 0
0.4375 0.625 0
0.40625 0.65625 0
0.4375 0.65625 0
0.375 0.65625 0
0.40625 0.65625 0
0.375 0.6875 0
0.40625 0.6875 0
0.40625 0.65625 0
0.4375 0.65625 0
0.40625 0.6875 0
0.4375 0.6875 0
0.4375 0.625 0
0.46875 0.625 0
0.4375 0.65625 0
0.46875 0.65625 0
0.46875 0.625 0
0.5 0.625 0
0.46875 0.65625 0
0.5 0.65625 0
0.4375 0.65625 0
0.46875 0.65625 0
0.4375 0.6875 0
0.46875 0.6875 0
0.46875 0.65625 0
0.5 0.65625 0
0.46875 0.6875 0
0.5 0.6875 0
0.375 0.6875 0
0.40625 0.6875 0
0.375 0.71875 0
0.40625 0.71875 0
0.40625 0.6875 0
0.4375 0.6875 0
0.40625 0.71875 0
0.4375 0.71875 0
0.375 0.71875 0
0.40625 0.71875 0
0.375 0.75 0
0.40625 0.75 0
0.40625 0.71875 0
0.4375 0.71875 0
0.40625 0.75 0
0.4375 0.75 0
0.4375 0.6875 0
0.46875 0.6875 0
0.4375 0.71875 0
0.46875 0.71875 0
0.46875 0.6875 0
0.5 0.6875 0
0.46875 0.71875 0
0.5 0.71875 0
0.4375 0.71875 0
0.46875 0.71875 0
0.4375 0.75 0
0.46875 0.75 0
0.46875 0.71875 0
0.5 0.71875 0
0.46875 0.75 0
0.5 0.75 0
0 0.75 0
0.03125 0.75 0
0 0.78125 0
0.03125 0.78125 0
0.03125 0.75 0
0.0625 0.75 0
0.03125 0.78125 0
0.0625 0.78125 0
0 0.78125 0
0.03125 0.78125 0
0 0.8125 0
0.03125 0.8125 0
0.03125 0.78125 0
0.0625 0.78125 0
0.03125 0.8125 0
0.0625 0.8125 0
0.0625 0.75 0
0.09375 0.75 0
0.0625 0.78125 0
0.09375 0.78125 0
0.09375 0.75 0
0.125 0.75 0
0.09375 0.78125 0
0.125 0.78125 0
0.0625 0.78125 0
0.09375 0.78125 0
0.0625 0.8125 0
0.09375 0.8125 0
0.09375 0.78125 0
0.125 0.78125 0
0.09375 0.8125 0
0.125 0.8125 0
0 0.8125 0
0.03125 0.8125 0
0 0.84375 0
0.03125 0.84375 0
0.03125 0.8125 0
0.0625 0.8125 0
0.03125 0.84375 0
0.0625 0.84375 0
0 0.84375 0
0.03125 0.84375 0
0 0.875 0
0.03125 0.875 0
0.03125 0.84375 0
0.0625 0.84375 0
0.03125 0.875 0
0.0625 0.875 0
0.0625 0.8125 0
0.09375 0.8125 0
0.0625 0.84375 0
0.09375 0.84375 0
0.09375 0.8125 0
0.125 0.8125 0
0.09375 0.84375 0
0.125 0.84375 0
0.0625 0.84375 0
0.09375 0.84375 0
0.0625 0.875 0
0.09375 0.875 0
0.09375 0.84375 0
0.125 0.84375 0
0.09375 0.875 0
0.125 0.875 0
0.125 0.75 0
0.15625 0.75 0
0.125 0.78125 0
0.15625 0.78125 0
0.15625 0.75 0
0.1875 0.75 0
0.15625 0.78125 0
0.1875 0.78125 0
0.125 0.78125 0
0.15625 0.78125 0
0.125 0.8125 0
0.15625 0.8125 0
0.15625 0.78125 0
0.1875 0.78125 0
0.15625 0.8125 0
0.1875 0.8125 0
0.1875 0.75 0
0.21875 0.75 0
0.1875 0.78125 0
0.21875 0.78125 0
0.21875 0.75 0
0.25 0.75 0
0.21875 0.78125 0
0.25 0.78125 0
0.1875 0.78125 0
0.21875 0.78125 0
0.1875 0.8125 0
0.21875 0.8125 0
0.21875 0.78125 0
0.25 0.78125 0
0.21875 0.8125 0
0.25 0.8125 0
0.125 0.8125 0
0.15625 0.8125 0
0.125 0.84375 0
0.15625 0.84375 0
0.15625 0.8125 0
[...]
POINT_DATA 4096
SCALARS x_dis double 1
LOOKUP_TABLE default
9.26815e-14 9.26815e-14 -3.54182e-13 -3.54182e-13 9.26815e-14 9.26815e-14 -3.54182e-13 -3.54182e-13 -3.54182e-13 -3.54182e-13 1.2441e-12 1.2441e-12 -3.54182e-13 -3.54182e-13 1.2441e-12 1.2441e-12 9.26815e-14 9.26815e-14 -3.54182e-13 -3.54182e-13 9.26815e-14 9.26815e-14 -3.54182e-13 -3.54182e-13 -3.54182e-13 -3.54182e-13 1.2441e-12 1.2441e-12 -3.54182e-13 -3.54182e-13 1.2441e-12 1.2441e-12 1.2441e-12 1.2441e-12 -3.92812e-12 -3.92812e-12 1.2441e-12 1.2441e-12 -3.92812e-12 -3.92812e-12 -3.92812e-12 -3.92812e-12 1.0487e-11 1.0487e-11 -3.92812e-12 -3.92812e-12 1.0487e-11 1.0487e-11 1.2441e-12 1.2441e-12 -3.92812e-12 -3.92812e-12 1.2441e-12 1.2441e-12 -3.92812e-12 -3.92812e-12 -3.92812e-12 -3.92812e-12 1.0487e-11 1.0487e-11 -3.92812e-12 -3.92812e-12 1.0487e-11 1.0487e-11 9.26815e-14 9.26815e-14 -3.54182e-13 -3.54182e-13 9.26815e-14 9.26815e-14 -3.54182e-13 -3.54182e-13 -3.54182e-13 -3.54182e-13 1.2441e-12 1.2441e-12 -3.54182e-13 -3.54182e-13 1.2441e-12 1.2441e-12 9.26815e-14 9.26815e-14 -3.54182e-13 -3.54182e-13 9.26815e-14 9.26815e-14 -3.54182e-13 -3.54182e-13 -3.54182e-13 -3.54182e-13 1.2441e-12 1.2441e-12 -3.54182e-13 -3.54182e-13 1.2441e-12 1.2441e-12 1.2441e-12 1.2441e-12 -3.92812e-12 -3.92812e-12 1.2441e-12 1.2441e-12 -3.92812e-12 -3.92812e-12 -3.92812e-12 -3.92812e-12 1.0487e-11 1.0487e-11 -3.92812e-12 -3.92812e-12 1.0487e-11 1.0487e-11 1.2441e-12 1.2441e-12 -3.92812e-12 -3.92812e-12 1.2441e-12 1.2441e-12 -3.92812e-12 -3.92812e-12 -3.92812e-12 -3.92812e-12 1.0487e-11 1.0487e-11 -3.92812e-12 -3.92812e-12 1.0487e-11 1.0487e-11 1.0487e-11 1.0487e-11 -1.89702e-11 -1.89702e-11 1.0487e-11 1.0487e-11 -1.89702e-11 -1.89702e-11 -1.89702e-11 -1.89702e-11 -1.46709e-11 -1.4671e-11 -1.89702e-11 -1.89702e-11 -1.4671e-11 -1.4671e-11 1.0487e-11 1.0487e-11 -1.89702e-11 -1.89702e-11 1.0487e-11 1.0487e-11 -1.89702e-11 -1.89702e-11 -1.89702e-11 -1.89702e-11 -1.4671e-11 -1.4671e-11 -1.89702e-11 -1.89702e-11 -1.4671e-11 -1.4671e-11 -1.46709e-11 -1.4671e-11 3.73575e-10 3.73575e-10 -1.4671e-11 -1.4671e-11 3.73575e-10 3.73575e-10 3.73575e-10 3.73575e-10 -2.39913e-09 -2.39913e-09 3.73575e-10 3.73575e-10 -2.39913e-09 -2.39913e-09 -1.4671e-11 -1.4671e-11 3.73575e-10 3.73575e-10 -1.4671e-11 -1.4671e-11 3.73575e-10 3.73575e-10 3.73575e-10 3.73575e-10 -2.39913e-09 -2.39913e-09 3.73575e-10 3.73575e-10 -2.39913e-09 -2.39913e-09 1.0487e-11 1.0487e-11 -1.89702e-11 -1.89702e-11 1.0487e-11 1.0487e-11 -1.89702e-11 -1.89702e-11 -1.89702e-11 -1.89702e-11 -1.4671e-11 -1.4671e-11 -1.89702e-11 -1.89702e-11 -1.4671e-11 -1.4671e-11 1.0487e-11 1.0487e-11 -1.89702e-11 -1.89702e-11 1.0487e-11 1.0487e-11 -1.89702e-11 -1.89702e-11 -1.89702e-11 -1.89702e-11 -1.4671e-11 -1.4671e-11 -1.89702e-11 -1.89702e-11 -1.4671e-11 -1.4671e-11 -1.4671e-11 -1.4671e-11 3.73575e-10 3.73575e-10 -1.4671e-11 -1.4671e-11 3.73575e-10 3.73575e-10 3.73575e-10 3.73575e-10 -2.39913e-09 -2.39913e-09 3.73575e-10 3.73575e-10 -2.39913e-09 -2.39913e-09 -1.4671e-11 -1.4671e-11 3.73575e-10 3.73575e-10 -1.4671e-11 -1.4671e-11 3.73575e-10 3.73575e-10 3.73575e-10 3.73575e-10 -2.39913e-09 -2.39913e-09 3.73575e-10 3.73575e-10 -2.39913e-09 -2.39913e-09 9.26815e-14 9.26815e-14 -3.54182e-13 -3.54182e-13 9.26815e-14 9.26815e-14 -3.54182e-13 -3.54182e-13 -3.54182e-13 -3.54182e-13 1.2441e-12 1.2441e-12 -3.54182e-13 -3.54182e-13 1.2441e-12 1.2441e-12 9.26815e-14 9.26814e-14 -3.54182e-13 -3.54182e-13 9.26814e-14 9.26815e-14 -3.54182e-13 -3.54181e-13 -3.54182e-13 -3.54182e-13 1.2441e-12 1.2441e-12 -3.54182e-13 -3.54181e-13 1.2441e-12 1.2441e-12 1.2441e-12 1.2441e-12 -3.92812e-12 -3.92812e-12 1.2441e-12 1.2441e-12 -3.92812e-12 -3.92812e-12 -3.92812e-12 -3.92812e-12 1.0487e-11 1.0487e-11 -3.92812e-12 -3.92812e-12 1.0487e-11 1.0487e-11 1.2441e-12 1.2441e-12 -3.92812e-12 -3.92812e-12 1.2441e-12 1.2441e-12 -3.92812e-12 -3.92812e-12 -3.92812e-12 -3.92812e-12 1.0487e-11 1.0487e-11 -3.92812e-12 -3.92812e-12 1.0487e-11 1.0487e-11 9.26815e-14 9.26814e-14 -3.54181e-13 -3.54191e-13 9.26814e-14 9.26813e-14 -3.54191e-13 -3.54139e-13 -3.54181e-13 -3.54191e-13 1.2441e-12 1.24412e-12 -3.54191e-13 -3.54139e-13 1.24412e-12 1.24408e-12 9.26813e-14 9.26829e-14 -3.54139e-13 -3.54276e-13 9.26829e-14 9.2675e-14 -3.54276e-13 -3.54542e-13 -3.54139e-13 -3.54276e-13 1.24408e-12 1.24412e-12 -3.54276e-13 -3.54542e-13 1.24412e-12 1.24413e-12 1.2441e-12 1.24412e-12 -3.92812e-12 -3.92813e-12 1.24412e-12 1.24408e-12 -3.92813e-12 -3.9281e-12 -3.92812e-12 -3.92813e-12 1.0487e-11 1.0487e-11 -3.92813e-12 -3.9281e-12 1.0487e-11 1.0487e-11 1.24408e-12 1.24412e-12 -3.9281e-12 -3.92814e-12 1.24412e-12 1.24413e-12 -3.92814e-12 -3.92811e-12 -3.9281e-12 -3.92814e-12 1.0487e-11 1.0487e-11 -3.92814e-12 -3.92811e-12 1.0487e-11 1.0487e-11 1.0487e-11 1.0487e-11 -1.89702e-11 -1.89702e-11 1.0487e-11 1.0487e-11 -1.89702e-11 -1.89702e-11 -1.89702e-11 -1.89702e-11 -1.4671e-11 -1.4671e-11 -1.89702e-11 -1.89702e-11 -1.4671e-11 -1.4671e-11 1.0487e-11 1.0487e-11 -1.89702e-11 -1.89702e-11 1.0487e-11 1.0487e-11 -1.89702e-11 -1.89702e-11 -1.89702e-11 -1.89702e-11 -1.4671e-11 -1.4671e-11 -1.89702e-11 -1.89702e-11 -1.4671e-11 -1.4671e-11 -1.4671e-11 -1.4671e-11 3.73575e-10 3.73575e-10 -1.4671e-11 -1.4671e-11 3.73575e-10 3.73575e-10 3.73575e-10 3.73575e-10 -2.39913e-09 -2.39913e-09 3.73575e-10 3.73575e-10 -2.39913e-09 -2.39913e-09 -1.4671e-11 -1.4671e-11 3.73575e-10 3.73575e-10 -1.4671e-11 -1.4671e-11 3.73575e-10 3.73575e-10 3.73575e-10 3.73575e-10 -2.39913e-09 -2.39913e-09 3.73575e-10 3.73575e-10 -2.39913e-09 -2.39913e-09 1.0487e-11 1.0487e-11 -1.89702e-11 -1.89702e-11 1.0487e-11 1.0487e-11 -1.89702e-11 -1.89702e-11 -1.89702e-11 -1.89702e-11 -1.4671e-11 -1.4671e-11 -1.89702e-11 -1.89702e-11 -1.4671e-11 -1.4671e-11 1.0487e-11 1.0487e-11 -1.89702e-11 -1.89702e-11 1.0487e-11 1.0487e-11 -1.89702e-11 -1.89702e-11 -1.89702e-11 -1.89702e-11 -1.4671e-11 -1.4671e-11 -1.89702e-11 -1.89702e-11 -1.4671e-11 -1.4671e-11 -1.4671e-11 -1.4671e-11 3.73575e-10 3.73575e-10 -1.4671e-11 -1.4671e-11 3.73575e-10 3.73575e-10 3.73575e-10 3.73575e-10 -2.39913e-09 -2.39913e-09 3.73575e-10 3.73575e-10 -2.39913e-09 -2.39913e-09 -1.4671e-11 -1.4671e-11 3.73575e-10 3.73575e-10 -1.4671e-11 -1.4671e-11 3.73575e-10 3.73575e-10 3.73575e-10 3.73575e-10 -2.39913e-09 -2.39913e-09 3.73575e-10 3.73575e-10 -2.39913e-09 -2.39913e-09 -2.39913e-09 -2.39913e-09 1.12266e-08 1.12266e-08 -2.39913e-09 -2.39913e-09 1.12266e-08 1.12266e-08 1.12266e-08 1.12266e-08 -4.20011e-08 -4.20011e-08 1.12266e-08 1.12266e-08 -4.20011e-08 -4.20011e-08 -2.39913e-09 -2.39913e-09 1.12266e-08 1.12266e-08 -2.39913e-09 -2.39913e-09 1.12266e-08 1.12266e-08 1.12266e-08 1.12266e-08 -4.20011e-08 -4.20011e-08 1.12266e-08 1.12266e-08 -4.20011e-08 -4.20011e-08 -4.20011e-08 -4.20011e-08 1.18373e-07 1.18374e-07 -4.20011e-08 -4.20011e-08 1.18374e-07 1.18373e-07 1.18373e-07 1.18374e-07 -1.55766e-07 -1.55767e-07 1.18374e-07 1.18373e-07 -1.55767e-07 -1.55766e-07 -4.20011e-08 -4.20011e-08 1.18373e-07 1.18374e-07 -4.20011e-08 -4.20011e-08 1.18374e-07 1.18374e-07 1.18373e-07 1.18374e-07 -1.55766e-07 -1.55767e-07 1.18374e-07 1.18374e-07 -1.55767e-07 -1.55766e-07 -2.39913e-09 -2.39913e-09 1.12266e-08 1.12266e-08 -2.39913e-09 -2.39913e-09 1.12266e-08 1.12266e-08 1.12266e-08 1.12266e-08 -4.20011e-08 -4.20011e-08 1.12266e-08 1.12266e-08 -4.20011e-08 -4.20011e-08 -2.39913e-09 -2.39913e-09 1.12266e-08 1.12266e-08 -2.39913e-09 -2.39913e-09 1.12266e-08 1.12266e-08 1.12266e-08 1.12266e-08 -4.20011e-08 -4.20011e-08 1.12266e-08 1.12266e-08 -4.20011e-08 -4.20011e-08 -4.20011e-08 -4.20011e-08 1.18374e-07 1.18374e-07 -4.20011e-08 -4.20011e-08 1.18374e-07 1.18374e-07 1.18374e-07 1.18374e-07 -1.55766e-07 -1.55766e-07 1.18374e-07 1.18374e-07 -1.55766e-07 -1.55766e-07 -4.20011e-08 -4.20011e-08 1.18374e-07 1.18374e-07 -4.20011e-08 -4.20011e-08 1.18374e-07 1.18374e-07 1.18374e-07 1.18374e-07 -1.55766e-07 -1.55766e-07 1.18374e-07 1.18374e-07 -1.55766e-07 -1.55766e-07 -1.55766e-07 -1.55767e-07 -7.98061e-07 -7.98055e-07 -1.55767e-07 -1.55766e-07 -7.98055e-07 -7.98061e-07 -7.98061e-07 -7.98055e-07 7.09901e-06 7.09897e-06 -7.98055e-07 -7.98061e-07 7.09897e-06 7.099e-06 -1.55766e-07 -1.55767e-07 -7.98061e-07 -7.98059e-07 -1.55767e-07 -1.55766e-07 -7.98059e-07 -7.98059e-07 -7.98061e-07 -7.98059e-07 7.099e-06 7.09899e-06 -7.98059e-07 -7.98059e-07 7.09899e-06 7.09899e-06 7.09901e-06 7.09897e-06 -2.1689e-05 -2.16886e-05 7.09897e-06 7.099e-06 -2.16886e-05 -2.16886e-05 -2.1689e-05 -2.16886e-05 -0.00012 -0.00012 -2.16886e-05 -2.16886e-05 -0.00012 -0.00012 7.099e-06 7.09899e-06 -2.16886e-05 -2.16886e-05 7.09899e-06 7.09899e-06 -2.16886e-05 -2.16886e-05 -2.16886e-05 -2.16886e-05 -0.00012 -0.00012 -2.16886e-05 -2.16886e-05 -0.00012 -0.00012 -1.55766e-07 -1.55766e-07 -7.98059e-07 -7.98059e-07 -1.55766e-07 -1.55766e-07 -7.98059e-07 -7.98059e-07 -7.98059e-07 -7.98059e-07 7.09899e-06 7.09899e-06 -7.98059e-07 -7.98059e-07 7.09899e-06 7.09899e-06 -1.55766e-07 -1.55766e-07 -7.98059e-07 -7.98059e-07 -1.55766e-07 -1.55766e-07 -7.98059e-07 -7.98059e-07 -7.98059e-07 -7.98059e-07 7.09899e-06 7.09899e-06 -7.98059e-07 -7.98059e-07 7.09899e-06 7.09899e-06 7.09899e-06 7.09899e-06 -2.16886e-05 -2.16886e-05 7.09899e-06 7.09899e-06 -2.16886e-05 -2.16886e-05 -2.16886e-05 -2.16886e-05 -0.00012 -0.00012 -2.16886e-05 -2.16886e-05 -0.00012 -0.00012 7.09899e-06 7.09899e-06 -2.16886e-05 -2.16886e-05 7.09899e-06 7.09899e-06 -2.16886e-05 -2.16886e-05 -2.16886e-05 -2.16886e-05 -0.00012 -0.00012 -2.16886e-05 -2.16886e-05 -0.00012 -0.00012 -2.39913e-09 -2.39913e-09 1.12266e-08 1.12266e-08 -2.39913e-09 -2.39913e-09 1.12266e-08 1.12266e-08 1.12266e-08 1.12266e-08 -4.20011e-08 -4.20011e-08 1.12266e-08 1.12266e-08 -4.20011e-08 -4.20011e-08 -2.39913e-09 -2.39913e-09 1.12266e-08 1.12266e-08 -2.39913e-09 -2.39913e-09 1.12266e-08 1.12266e-08 1.12266e-08 1.12266e-08 -4.20011e-08 -4.20011e-08 1.12266e-08 1.12266e-08 -4.20011e-08 -4.20011e-08 -4.20011e-08 -4.20011e-08 1.18374e-07 1.18374e-07 -4.20011e-08 -4.20011e-08 1.18374e-07 1.18374e-07 1.18374e-07 1.18374e-07 -1.55766e-07 -1.55766e-07 1.18374e-07 1.18374e-07 -1.55766e-07 -1.55766e-07 -4.20011e-08 -4.20011e-08 1.18374e-07 1.18374e-07 -4.20011e-08 -4.20011e-08 1.18374e-07 1.18374e-07 1.18374e-07 1.18374e-07 -1.55766e-07 -1.55766e-07 1.18374e-07 1.18374e-07 -1.55766e-07 -1.55766e-07 -2.39913e-09 -2.39913e-09 1.12266e-08 1.12266e-08 -2.39913e-09 -2.39913e-09 1.12266e-08 1.12266e-08 1.12266e-08 1.12266e-08 -4.20011e-08 -4.20011e-08 1.12266e-08 1.12266e-08 -4.20011e-08 -4.20011e-08 -2.39913e-09 -2.39913e-09 1.12266e-08 1.12266e-08 -2.39913e-09 -2.39913e-09 1.12266e-08 1.12266e-08 1.12266e-08 1.12266e-08 -4.20011e-08 -4.20011e-08 1.12266e-08 1.12266e-08 -4.20011e-08 -4.20011e-08 -4.20011e-08 -4.20011e-08 1.18374e-07 1.18374e-07 -4.20011e-08 -4.20011e-08 1.18374e-07 1.18374e-07 1.18374e-07 1.18374e-07 -1.55766e-07 -1.55766e-07 1.18374e-07 1.18374e-07 -1.55766e-07 -1.55766e-07 -4.20011e-08 -4.20011e-08 1.18374e-07 1.18374e-07 -4.20011e-08 -4.20011e-08 1.18374e-07 1.18374e-07 1.18374e-07 1.18374e-07 -1.55766e-07 -1.55766e-07 1.18374e-07 1.18374e-07 -1.55766e-07 -1.55766e-07 -1.55766e-07 -1.55766e-07 -7.98059e-07 -7.98059e-07 -1.55766e-07 -1.55766e-07 -7.98059e-07 -7.98059e-07 -7.98059e-07 -7.98059e-07 7.09899e-06 7.09899e-06 -7.98059e-07 -7.98059e-07 7.09899e-06 7.09899e-06 -1.55766e-07 -1.55766e-07 -7.98059e-07 -7.98059e-07 -1.55766e-07 -1.55766e-07 -7.98059e-07 -7.98059e-07 -7.98059e-07 -7.98059e-07 7.09899e-06 7.09899e-06 -7.98059e-07 -7.98059e-07 7.09899e-06 7.09899e-06 7.09899e-06 7.09899e-06 -2.16886e-05 -2.16886e-05 7.09899e-06 7.09899e-06 -2.16886e-05 -2.16886e-05 -2.16886e-05 -2.16886e-05 -0.00012 -0.00012 -2.16886e-05 -2.16886e-05 -0.00012 -0.00012 7.09899e-06 7.09899e-06 -2.16886e-05 -2.16886e-05 7.09899e-06 7.09899e-06 -2.16886e-05 -2.16886e-05 -2.16886e-05 -2.16886e-05 -0.00012 -0.00012 -2.16886e-05 -2.16886e-05 -0.00012 -0.00012 -1.55766e-07 -1.55766e-07 -7.98059e-07 -7.98059e-07 -1.55766e-07 -1.55766e-07 -7.98059e-07 -7.98059e-07 -7.98059e-07 -7.98059e-07 7.09899e-06 7.09899e-06 -7.98059e-07 -7.98059e-07 7.09899e-06 7.09899e-06 -1.55766e-07 -1.55766e-07 -7.98059e-07 -7.98059e-07 -1.55766e-07 -1.55766e-07 -7.98059e-07 -7.98059e-07 -7.98059e-07 -7.98059e-07 7.09899e-06 7.09899e-06 -7.98059e-07 -7.98059e-07 7.09899e-06 7.09899e-06 7.09899e-06 7.09899e-06 -2.16886e-05 -2.16886e-05 7.09899e-06 7.09899e-06 -2.16886e-05 -2.16886e-05 -2.16886e-05 -2.16886e-05 -0.00012 -0.00012 -2.16886e-05 -2.16886e-05 -0.00012 -0.00012 7.09899e-06 7.09899e-06 -2.16886e-05 -2.16886e-05 7.09899e-06 7.09899e-06 -2.16886e-05 -2.16886e-05 -2.16886e-05 -2.16886e-05 -0.00012 -0.00012 -2.16886e-05 -2.16886e-05 -0.00012 -0.00012 9.2675e-14 1.97376e-13 -3.54542e-13 -3.78067e-13 1.97376e-13 1.86675e-13 -3.78067e-13 -3.77038e-13 -3.54542e-13 -3.78067e-13 1.24413e-12 1.24914e-12 -3.78067e-13 -3.77038e-13 1.24914e-12 1.24923e-12 1.86675e-13 1.84083e-13 -3.77038e-13 -3.76364e-13 1.84083e-13 1.85804e-13 -3.76364e-13 -3.76643e-13 -3.77038e-13 -3.76364e-13 1.24923e-12 1.24902e-12 -3.76364e-13 -3.76643e-13 1.24902e-12 1.24904e-12 1.24413e-12 1.24914e-12 -3.92811e-12 -3.92903e-12 1.24914e-12 1.24923e-12 -3.92903e-12 -3.92914e-12 -3.92811e-12 -3.92903e-12 1.0487e-11 1.04871e-11 -3.92903e-12 -3.92914e-12 1.04871e-11 1.04871e-11 1.24923e-12 1.24902e-12 -3.92914e-12 -3.9291e-12 1.24902e-12 1.24904e-12 -3.9291e-12 -3.92908e-12 -3.92914e-12 -3.9291e-12 1.04871e-11 1.04871e-11 -3.9291e-12 -3.92908e-12 1.04871e-11 1.04871e-11 1.85804e-13 1.85259e-13 -3.76643e-13 -3.76571e-13 1.85259e-13 1.8538e-13 -3.76571e-13 -3.76586e-13 -3.76643e-13 -3.76571e-13 1.24904e-12 1.24906e-12 -3.76571e-13 -3.76586e-13 1.24906e-12 1.24905e-12 1.8538e-13 1.85362e-13 -3.76586e-13 -3.76583e-13 1.85362e-13 1.85362e-13 -3.76583e-13 -3.76583e-13 -3.76586e-13 -3.76583e-13 1.24905e-12 1.24906e-12 -3.76583e-13 -3.76583e-13 1.24906e-12 1.24906e-12 1.24904e-12 1.24906e-12 -3.92908e-12 -3.9291e-12 1.24906e-12 1.24905e-12 -3.9291e-12 -3.92909e-12 -3.92908e-12 -3.9291e-12 1.04871e-11 1.04871e-11 -3.9291e-12 -3.92909e-12 1.04871e-11 1.04871e-11 1.24905e-12 1.24906e-12 -3.92909e-12 -3.92909e-12 1.24906e-12 1.24906e-12 -3.92909e-12 -3.92909e-12 -3.92909e-12 -3.92909e-12 1.04871e-11 1.04871e-11 -3.92909e-12 -3.92909e-12 1.04871e-11 1.04871e-11 1.0487e-11 1.04871e-11 -1.89702e-11 -1.89702e-11 1.04871e-11 1.04871e-11 -1.89702e-11 -1.89702e-11 -1.89702e-11 -1.89702e-11 -1.4671e-11 -1.4671e-11 -1.89702e-11 -1.89702e-11 -1.4671e-11 -1.4671e-11 1.04871e-11 1.04871e-11 -1.89702e-11 -1.89702e-11 1.04871e-11 1.04871e-11 -1.89702e-11 -1.89702e-11 -1.89702e-11 -1.89702e-11 -1.4671e-11 -1.4671e-11 -1.89702e-11 -1.89702e-11 -1.4671e-11 -1.4671e-11 -1.4671e-11 -1.4671e-11 3.73575e-10 3.73575e-10 -1.4671e-11 -1.4671e-11 3.73575e-10 3.73575e-10 3.73575e-10 3.73575e-10 -2.39913e-09 -2.39913e-09 3.73575e-10 3.73575e-10 -2.39913e-09 -2.39913e-09 -1.4671e-11 -1.4671e-11 3.73575e-10 3.73575e-10 -1.4671e-11 -1.4671e-11 3.73575e-10 3.73575e-10 3.73575e-10 3.73575e-10 -2.39913e-09 -2.39913e-09 3.73575e-10 3.73575e-10 -2.39913e-09 -2.39913e-09 1.04871e-11 1.04871e-11 -1.89702e-11 -1.89702e-11 1.04871e-11 1.04871e-11 -1.89702e-11 -1.89702e-11 -1.89702e-11 -1.89702e-11 -1.4671e-11 -1.4671e-11 -1.89702e-11 -1.89702e-11 -1.4671e-11 -1.4671e-11 1.04871e-11 1.04871e-11 -1.89702e-11 -1.89702e-11 1.04871e-11 1.04871e-11 -1.89702e-11 -1.89702e-11 -1.89702e-11 -1.89702e-11 -1.4671e-11 -1.4671e-11 -1.89702e-11 -1.89702e-11 -1.4671e-11 -1.4671e-11 -1.4671e-11 -1.4671e-11 3.73575e-10 3.73575e-10 -1.4671e-11 -1.4671e-11 3.73575e-10 3.73575e-10 3.73575e-10 3.73575e-10 -2.39913e-09 -2.39913e-09 3.73575e-10 3.73575e-10 -2.39913e-09 -2.39913e-09 -1.4671e-11 -1.4671e-11 3.73575e-10 3.73575e-10 -1.4671e-11 -1.4671e-11 3.73575e-10 3.73575e-10 3.73575e-10 3.73575e-10 -2.39913e-09 -2.39913e-09 3.73575e-10 3.73575e-10 -2.39913e-09 -2.39913e-09 1.85362e-13 1.85363e-13 -3.76583e-13 -3.76583e-13 1.85363e-13 1.85363e-13 -3.76583e-13 -3.76583e-13 -3.76583e-13 -3.76583e-13 1.24906e-12 1.24906e-12 -3.76583e-13 -3.76583e-13 1.24906e-12 1.24906e-12 1.85363e-13 1.85363e-13 -3.76583e-13 -3.76583e-13 1.85363e-13 1.85363e-13 -3.76583e-13 -3.76583e-13 -3.76583e-13 -3.76583e-13 1.24906e-12 1.24906e-12 -3.76583e-13 -3.76583e-13 1.24906e-12 1.24906e-12 1.24906e-12 1.24906e-12 -3.92909e-12 -3.92909e-12 1.24906e-12 1.24906e-12 -3.92909e-12 -3.92909e-12 -3.92909e-12 -3.92909e-12 1.04871e-11 1.04871e-11 -3.92909e-12 -3.92909e-12 1.04871e-11 1.04871e-11 1.24906e-12 1.24906e-12 -3.92909e-12 -3.92909e-12 1.24906e-12 1.24906e-12 -3.92909e-12 -3.92909e-12 -3.92909e-12 -3.92909e-12 1.04871e-11 1.04871e-11 -3.92909e-12 -3.92909e-12 1.04871e-11 1.04871e-11 1.85363e-13 1.85363e-13 -3.76583e-13 -3.76583e-13 1.85363e-13 1.85363e-13 -3.76583e-13 -3.76583e-13 -3.76583e-13 -3.76583e-13 1.24906e-12 1.24906e-12 -3.76583e-13 -3.76583e-13 1.24906e-12 1.24906e-12 1.85363e-13 1.85363e-13 -3.76583e-13 -3.76583e-13 1.85363e-13 1.85363e-13 -3.76583e-13 -3.76583e-13 -3.76583e-13 -3.76583e-13 1.24906e-12 1.24906e-12 -3.76583e-13 -3.76583e-13 1.24906e-12 1.24906e-12 1.24906e-12 1.24906e-12 -3.92909e-12 -3.92909e-12 1.24906e-12 1.24906e-12 -3.92909e-12 -3.92909e-12 -3.92909e-12 -3.92909e-12 1.04871e-11 1.04871e-11 -3.92909e-12 -3.92909e-12 1.04871e-11 1.04871e-11 1.24906e-12 1.24906e-12 -3.92909e-12 -3.92909e-12 1.24906e-12 1.24906e-12 -3.92909e-12 -3.92909e-12 -3.92909e-12 -3.92909e-12 1.04871e-11 1.04871e-11 -3.92909e-12 -3.92909e-12 1.04871e-11 1.04871e-11 1.04871e-11 1.04871e-11 -1.89702e-11 -1.89702e-11 1.04871e-11 1.04871e-11 -1.89702e-11 -1.89702e-11 -1.89702e-11 -1.89702e-11 -1.4671e-11 -1.4671e-11 -1.89702e-11 -1.89702e-11 -1.4671e-11 -1.4671e-11 1.04871e-11 1.04871e-11 -1.89702e-11 -1.89702e-11 1.04871e-11 1.04871e-11 -1.89702e-11 -1.89702e-11 -1.89702e-11 -1.89702e-11 -1.4671e-11 -1.4671e-11 -1.89702e-11 -1.89702e-11 -1.4671e-11 -1.4671e-11 -1.4671e-11 -1.4671e-11 3.73575e-10 3.73575e-10 -1.4671e-11 -1.4671e-11 3.73575e-10 3.73575e-10 3.73575e-10 3.73575e-10 -2.39913e-09 -2.39913e-09 3.73575e-10 3.73575e-10 -2.39913e-09 -2.39913e-09 -1.4671e-11 -1.4671e-11 3.73575e-10 3.73575e-10 -1.4671e-11 -1.4671e-11 3.73575e-10 3.73575e-10 3.73575e-10 3.73575e-10 -2.39913e-09 -2.39913e-09 3.73575e-10 3.73575e-10 -2.39913e-09 -2.39913e-09 1.04871e-11 1.04871e-11 -1.89702e-11 -1.89702e-11 1.04871e-11 1.04871e-11 -1.89702e-11 -1.89702e-11 -1.89702e-11 -1.89702e-11 -1.4671e-11 -1.4671e-11 -1.89702e-11 -1.89702e-11 -1.4671e-11 -1.4671e-11 1.04871e-11 1.04871e-11 -1.89702e-11 -1.89702e-11 1.04871e-11 1.04871e-11 -1.89702e-11 -1.89702e-11 -1.89702e-11 -1.89702e-11 -1.4671e-11 -1.4671e-11 -1.89702e-11 -1.89702e-11 -1.4671e-11 -1.4671e-11 -1.4671e-11 -1.4671e-11 3.73575e-10 3.73575e-10 -1.4671e-11 -1.4671e-11 3.73575e-10 3.73575e-10 3.73575e-10 3.73575e-10 -2.39913e-09 -2.39913e-09 3.73575e-10 3.73575e-10 -2.39913e-09 -2.39913e-09 -1.4671e-11 -1.4671e-11 3.73575e-10 3.73575e-10 -1.4671e-11 -1.4671e-11 3.73575e-10 3.73575e-10 3.73575e-10 3.73575e-10 -2.39913e-09 -2.39913e-09 3.73575e-10 3.73575e-10 -2.39913e-09 -2.39913e-09 -2.39913e-09 -2.39913e-09 1.12266e-08 1.12266e-08 -2.39913e-09 -2.39913e-09 1.12266e-08 1.12266e-08 1.12266e-08 1.12266e-08 -4.20011e-08 -4.20011e-08 1.12266e-08 1.12266e-08 -4.20011e-08 -4.20011e-08 -2.39913e-09 -2.39913e-09 1.12266e-08 1.12266e-08 -2.39913e-09 -2.39913e-09 1.12266e-08 1.12266e-08 1.12266e-08 1.12266e-08 -4.20011e-08 -4.20011e-08 1.12266e-08 1.12266e-08 -4.20011e-08 -4.20011e-08 -4.20011e-08 -4.20011e-08 1.18374e-07 1.18374e-07 -4.20011e-08 -4.20011e-08 1.18374e-07 1.18374e-07 1.18374e-07 1.18374e-07 -1.55766e-07 -1.55766e-07 1.18374e-07 1.18374e-07 -1.55766e-07 -1.55766e-07 -4.20011e-08 -4.20011e-08 1.18374e-07 1.18374e-07 -4.20011e-08 -4.20011e-08 1.18374e-07 1.18374e-07 1.18374e-07 1.18374e-07 -1.55766e-07 -1.55766e-07 1.18374e-07 1.18374e-07 -1.55766e-07 -1.55766e-07 -2.39913e-09 -2.39913e-09 1.12266e-08 1.12266e-08 -2.39913e-09 -2.39913e-09 1.12266e-08 1.12266e-08 1.12266e-08 1.12266e-08 -4.20011e-08 -4.20011e-08 1.12266e-08 1.12266e-08 -4.20011e-08 -4.20011e-08 -2.39913