# vtk DataFile Version 3.0
#This file was generated by the deal.II library on 2022/11/16 at 21:27:00
ASCII
DATASET UNSTRUCTURED_GRID

POINTS 4096 double
0 0.5 0
0.03125 0.5 0
0 0.53125 0
0.03125 0.53125 0
0.03125 0.5 0
0.0625 0.5 0
0.03125 0.53125 0
0.0625 0.53125 0
0 0.53125 0
0.03125 0.53125 0
0 0.5625 0
0.03125 0.5625 0
0.03125 0.53125 0
0.0625 0.53125 0
0.03125 0.5625 0
0.0625 0.5625 0
0.0625 0.5 0
0.09375 0.5 0
0.0625 0.53125 0
0.09375 0.53125 0
0.09375 0.5 0
0.125 0.5 0
0.09375 0.53125 0
0.125 0.53125 0
0.0625 0.53125 0
0.09375 0.53125 0
0.0625 0.5625 0
0.09375 0.5625 0
0.09375 0.53125 0
0.125 0.53125 0
0.09375 0.5625 0
0.125 0.5625 0
0 0.5625 0
0.03125 0.5625 0
0 0.59375 0
0.03125 0.59375 0
0.03125 0.5625 0
0.0625 0.5625 0
0.03125 0.59375 0
0.0625 0.59375 0
0 0.59375 0
0.03125 0.59375 0
0 0.625 0
0.03125 0.625 0
0.03125 0.59375 0
0.0625 0.59375 0
0.03125 0.625 0
0.0625 0.625 0
0.0625 0.5625 0
0.09375 0.5625 0
0.0625 0.59375 0
0.09375 0.59375 0
0.09375 0.5625 0
0.125 0.5625 0
0.09375 0.59375 0
0.125 0.59375 0
0.0625 0.59375 0
0.09375 0.59375 0
0.0625 0.625 0
0.09375 0.625 0
0.09375 0.59375 0
0.125 0.59375 0
0.09375 0.625 0
0.125 0.625 0
0.125 0.5 0
0.15625 0.5 0
0.125 0.53125 0
0.15625 0.53125 0
0.15625 0.5 0
0.1875 0.5 0
0.15625 0.53125 0
0.1875 0.53125 0
0.125 0.53125 0
0.15625 0.53125 0
0.125 0.5625 0
0.15625 0.5625 0
0.15625 0.53125 0
0.1875 0.53125 0
0.15625 0.5625 0
0.1875 0.5625 0
0.1875 0.5 0
0.21875 0.5 0
0.1875 0.53125 0
0.21875 0.53125 0
0.21875 0.5 0
0.25 0.5 0
0.21875 0.53125 0
0.25 0.53125 0
0.1875 0.53125 0
0.21875 0.53125 0
0.1875 0.5625 0
0.21875 0.5625 0
0.21875 0.53125 0
0.25 0.53125 0
0.21875 0.5625 0
0.25 0.5625 0
0.125 0.5625 0
0.15625 0.5625 0
0.125 0.59375 0
0.15625 0.59375 0
0.15625 0.5625 0
0.1875 0.5625 0
0.15625 0.59375 0
0.1875 0.59375 0
0.125 0.59375 0
0.15625 0.59375 0
0.125 0.625 0
0.15625 0.625 0
0.15625 0.59375 0
0.1875 0.59375 0
0.15625 0.625 0
0.1875 0.625 0
0.1875 0.5625 0
0.21875 0.5625 0
0.1875 0.59375 0
0.21875 0.59375 0
0.21875 0.5625 0
0.25 0.5625 0
0.21875 0.59375 0
0.25 0.59375 0
0.1875 0.59375 0
0.21875 0.59375 0
0.1875 0.625 0
0.21875 0.625 0
0.21875 0.59375 0
0.25 0.59375 0
0.21875 0.625 0
0.25 0.625 0
0 0.625 0
0.03125 0.625 0
0 0.65625 0
0.03125 0.65625 0
0.03125 0.625 0
0.0625 0.625 0
0.03125 0.65625 0
0.0625 0.65625 0
0 0.65625 0
0.03125 0.65625 0
0 0.6875 0
0.03125 0.6875 0
0.03125 0.65625 0
0.0625 0.65625 0
0.03125 0.6875 0
0.0625 0.6875 0
0.0625 0.625 0
0.09375 0.625 0
0.0625 0.65625 0
0.09375 0.65625 0
0.09375 0.625 0
0.125 0.625 0
0.09375 0.65625 0
0.125 0.65625 0
0.0625 0.65625 0
0.09375 0.65625 0
0.0625 0.6875 0
0.09375 0.6875 0
0.09375 0.65625 0
0.125 0.65625 0
0.09375 0.6875 0
0.125 0.6875 0
0 0.6875 0
0.03125 0.6875 0
0 0.71875 0
0.03125 0.71875 0
0.03125 0.6875 0
0.0625 0.6875 0
0.03125 0.71875 0
0.0625 0.71875 0
0 0.71875 0
0.03125 0.71875 0
0 0.75 0
0.03125 0.75 0
0.03125 0.71875 0
0.0625 0.71875 0
0.03125 0.75 0
0.0625 0.75 0
0.0625 0.6875 0
0.09375 0.6875 0
0.0625 0.71875 0
0.09375 0.71875 0
0.09375 0.6875 0
0.125 0.6875 0
0.09375 0.71875 0
0.125 0.71875 0
0.0625 0.71875 0
0.09375 0.71875 0
0.0625 0.75 0
0.09375 0.75 0
0.09375 0.71875 0
0.125 0.71875 0
0.09375 0.75 0
0.125 0.75 0
0.125 0.625 0
0.15625 0.625 0
0.125 0.65625 0
0.15625 0.65625 0
0.15625 0.625 0
0.1875 0.625 0
0.15625 0.65625 0
0.1875 0.65625 0
0.125 0.65625 0
0.15625 0.65625 0
0.125 0.6875 0
0.15625 0.6875 0
0.15625 0.65625 0
0.1875 0.65625 0
0.15625 0.6875 0
0.1875 0.6875 0
0.1875 0.625 0
0.21875 0.625 0
0.1875 0.65625 0
0.21875 0.65625 0
0.21875 0.625 0
0.25 0.625 0
0.21875 0.65625 0
0.25 0.65625 0
0.1875 0.65625 0
0.21875 0.65625 0
0.1875 0.6875 0
0.21875 0.6875 0
0.21875 0.65625 0
0.25 0.65625 0
0.21875 0.6875 0
0.25 0.6875 0
0.125 0.6875 0
0.15625 0.6875 0
0.125 0.71875 0
0.15625 0.71875 0
0.15625 0.6875 0
0.1875 0.6875 0
0.15625 0.71875 0
0.1875 0.71875 0
0.125 0.71875 0
0.15625 0.71875 0
0.125 0.75 0
0.15625 0.75 0
0.15625 0.71875 0
0.1875 0.71875 0
0.15625 0.75 0
0.1875 0.75 0
0.1875 0.6875 0
0.21875 0.6875 0
0.1875 0.71875 0
0.21875 0.71875 0
0.21875 0.6875 0
0.25 0.6875 0
0.21875 0.71875 0
0.25 0.71875 0
0.1875 0.71875 0
0.21875 0.71875 0
0.1875 0.75 0
0.21875 0.75 0
0.21875 0.71875 0
0.25 0.71875 0
0.21875 0.75 0
0.25 0.75 0
0.25 0.5 0
0.28125 0.5 0
0.25 0.53125 0
0.28125 0.53125 0
0.28125 0.5 0
0.3125 0.5 0
0.28125 0.53125 0
0.3125 0.53125 0
0.25 0.53125 0
0.28125 0.53125 0
0.25 0.5625 0
0.28125 0.5625 0
0.28125 0.53125 0
0.3125 0.53125 0
0.28125 0.5625 0
0.3125 0.5625 0
0.3125 0.5 0
0.34375 0.5 0
0.3125 0.53125 0
0.34375 0.53125 0
0.34375 0.5 0
0.375 0.5 0
0.34375 0.53125 0
0.375 0.53125 0
0.3125 0.53125 0
0.34375 0.53125 0
0.3125 0.5625 0
0.34375 0.5625 0
0.34375 0.53125 0
0.375 0.53125 0
0.34375 0.5625 0
0.375 0.5625 0
0.25 0.5625 0
0.28125 0.5625 0
0.25 0.59375 0
0.28125 0.59375 0
0.28125 0.5625 0
0.3125 0.5625 0
0.28125 0.59375 0
0.3125 0.59375 0
0.25 0.59375 0
0.28125 0.59375 0
0.25 0.625 0
0.28125 0.625 0
0.28125 0.59375 0
0.3125 0.59375 0
0.28125 0.625 0
0.3125 0.625 0
0.3125 0.5625 0
0.34375 0.5625 0
0.3125 0.59375 0
0.34375 0.59375 0
0.34375 0.5625 0
0.375 0.5625 0
0.34375 0.59375 0
0.375 0.59375 0
0.3125 0.59375 0
0.34375 0.59375 0
0.3125 0.625 0
0.34375 0.625 0
0.34375 0.59375 0
0.375 0.59375 0
0.34375 0.625 0
0.375 0.625 0
0.375 0.5 0
0.40625 0.5 0
0.375 0.53125 0
0.40625 0.53125 0
0.40625 0.5 0
0.4375 0.5 0
0.40625 0.53125 0
0.4375 0.53125 0
0.375 0.53125 0
0.40625 0.53125 0
0.375 0.5625 0
0.40625 0.5625 0
0.40625 0.53125 0
0.4375 0.53125 0
0.40625 0.5625 0
0.4375 0.5625 0
0.4375 0.5 0
0.46875 0.5 0
0.4375 0.53125 0
0.46875 0.53125 0
0.46875 0.5 0
0.5 0.5 0
0.46875 0.53125 0
0.5 0.53125 0
0.4375 0.53125 0
0.46875 0.53125 0
0.4375 0.5625 0
0.46875 0.5625 0
0.46875 0.53125 0
0.5 0.53125 0
0.46875 0.5625 0
0.5 0.5625 0
0.375 0.5625 0
0.40625 0.5625 0
0.375 0.59375 0
0.40625 0.59375 0
0.40625 0.5625 0
0.4375 0.5625 0
0.40625 0.59375 0
0.4375 0.59375 0
0.375 0.59375 0
0.40625 0.59375 0
0.375 0.625 0
0.40625 0.625 0
0.40625 0.59375 0
0.4375 0.59375 0
0.40625 0.625 0
0.4375 0.625 0
0.4375 0.5625 0
0.46875 0.5625 0
0.4375 0.59375 0
0.46875 0.59375 0
0.46875 0.5625 0
0.5 0.5625 0
0.46875 0.59375 0
0.5 0.59375 0
0.4375 0.59375 0
0.46875 0.59375 0
0.4375 0.625 0
0.46875 0.625 0
0.46875 0.59375 0
0.5 0.59375 0
0.46875 0.625 0
0.5 0.625 0
0.25 0.625 0
0.28125 0.625 0
0.25 0.65625 0
0.28125 0.65625 0
0.28125 0.625 0
0.3125 0.625 0
0.28125 0.65625 0
0.3125 0.65625 0
0.25 0.65625 0
0.28125 0.65625 0
0.25 0.6875 0
0.28125 0.6875 0
0.28125 0.65625 0
0.3125 0.65625 0
0.28125 0.6875 0
0.3125 0.6875 0
0.3125 0.625 0
0.34375 0.625 0
0.3125 0.65625 0
0.34375 0.65625 0
0.34375 0.625 0
0.375 0.625 0
0.34375 0.65625 0
0.375 0.65625 0
0.3125 0.65625 0
0.34375 0.65625 0
0.3125 0.6875 0
0.34375 0.6875 0
0.34375 0.65625 0
0.375 0.65625 0
0.34375 0.6875 0
0.375 0.6875 0
0.25 0.6875 0
0.28125 0.6875 0
0.25 0.71875 0
0.28125 0.71875 0
0.28125 0.6875 0
0.3125 0.6875 0
0.28125 0.71875 0
0.3125 0.71875 0
0.25 0.71875 0
0.28125 0.71875 0
0.25 0.75 0
0.28125 0.75 0
0.28125 0.71875 0
0.3125 0.71875 0
0.28125 0.75 0
0.3125 0.75 0
0.3125 0.6875 0
0.34375 0.6875 0
0.3125 0.71875 0
0.34375 0.71875 0
0.34375 0.6875 0
0.375 0.6875 0
0.34375 0.71875 0
0.375 0.71875 0
0.3125 0.71875 0
0.34375 0.71875 0
0.3125 0.75 0
0.34375 0.75 0
0.34375 0.71875 0
0.375 0.71875 0
0.34375 0.75 0
0.375 0.75 0
0.375 0.625 0
0.40625 0.625 0
0.375 0.65625 0
0.40625 0.65625 0
0.40625 0.625 0
0.4375 0.625 0
0.40625 0.65625 0
0.4375 0.65625 0
0.375 0.65625 0
0.40625 0.65625 0
0.375 0.6875 0
0.40625 0.6875 0
0.40625 0.65625 0
0.4375 0.65625 0
0.40625 0.6875 0
0.4375 0.6875 0
0.4375 0.625 0
0.46875 0.625 0
0.4375 0.65625 0
0.46875 0.65625 0
0.46875 0.625 0
0.5 0.625 0
0.46875 0.65625 0
0.5 0.65625 0
0.4375 0.65625 0
0.46875 0.65625 0
0.4375 0.6875 0
0.46875 0.6875 0
0.46875 0.65625 0
0.5 0.65625 0
0.46875 0.6875 0
0.5 0.6875 0
0.375 0.6875 0
0.40625 0.6875 0
0.375 0.71875 0
0.40625 0.71875 0
0.40625 0.6875 0
0.4375 0.6875 0
0.40625 0.71875 0
0.4375 0.71875 0
0.375 0.71875 0
0.40625 0.71875 0
0.375 0.75 0
0.40625 0.75 0
0.40625 0.71875 0
0.4375 0.71875 0
0.40625 0.75 0
0.4375 0.75 0
0.4375 0.6875 0
0.46875 0.6875 0
0.4375 0.71875 0
0.46875 0.71875 0
0.46875 0.6875 0
0.5 0.6875 0
0.46875 0.71875 0
0.5 0.71875 0
0.4375 0.71875 0
0.46875 0.71875 0
0.4375 0.75 0
0.46875 0.75 0
0.46875 0.71875 0
0.5 0.71875 0
0.46875 0.75 0
0.5 0.75 0
0 0.75 0
0.03125 0.75 0
0 0.78125 0
0.03125 0.78125 0
0.03125 0.75 0
0.0625 0.75 0
0.03125 0.78125 0
0.0625 0.78125 0
0 0.78125 0
0.03125 0.78125 0
0 0.8125 0
0.03125 0.8125 0
0.03125 0.78125 0
0.0625 0.78125 0
0.03125 0.8125 0
0.0625 0.8125 0
0.0625 0.75 0
0.09375 0.75 0
0.0625 0.78125 0
0.09375 0.78125 0
0.09375 0.75 0
0.125 0.75 0
0.09375 0.78125 0
0.125 0.78125 0
0.0625 0.78125 0
0.09375 0.78125 0
0.0625 0.8125 0
0.09375 0.8125 0
0.09375 0.78125 0
0.125 0.78125 0
0.09375 0.8125 0
0.125 0.8125 0
0 0.8125 0
0.03125 0.8125 0
0 0.84375 0
0.03125 0.84375 0
0.03125 0.8125 0
0.0625 0.8125 0
0.03125 0.84375 0
0.0625 0.84375 0
0 0.84375 0
0.03125 0.84375 0
0 0.875 0
0.03125 0.875 0
0.03125 0.84375 0
0.0625 0.84375 0
0.03125 0.875 0
0.0625 0.875 0
0.0625 0.8125 0
0.09375 0.8125 0
0.0625 0.84375 0
0.09375 0.84375 0
0.09375 0.8125 0
0.125 0.8125 0
0.09375 0.84375 0
0.125 0.84375 0
0.0625 0.84375 0
0.09375 0.84375 0
0.0625 0.875 0
0.09375 0.875 0
0.09375 0.84375 0
0.125 0.84375 0
0.09375 0.875 0
0.125 0.875 0
0.125 0.75 0
0.15625 0.75 0
0.125 0.78125 0
0.15625 0.78125 0
0.15625 0.75 0
0.1875 0.75 0
0.15625 0.78125 0
0.1875 0.78125 0
0.125 0.78125 0
0.15625 0.78125 0
0.125 0.8125 0
0.15625 0.8125 0
0.15625 0.78125 0
0.1875 0.78125 0
0.15625 0.8125 0
0.1875 0.8125 0
0.1875 0.75 0
0.21875 0.75 0
0.1875 0.78125 0
0.21875 0.78125 0
0.21875 0.75 0
0.25 0.75 0
0.21875 0.78125 0
0.25 0.78125 0
0.1875 0.78125 0
0.21875 0.78125 0
0.1875 0.8125 0
0.21875 0.8125 0
0.21875 0.78125 0
0.25 0.78125 0
0.21875 0.8125 0
0.25 0.8125 0
0.125 0.8125 0
0.15625 0.8125 0
0.125 0.84375 0
0.15625 0.84375 0
0.15625 0.8125 0
[...]
POINT_DATA 4096
SCALARS x_dis double 1
LOOKUP_TABLE default
-5.06936e-07 -5.06795e-07 6.89495e-06 6.89516e-06 -5.06795e-07 -5.06384e-07 6.89516e-06 6.89575e-06 6.89495e-06 6.89516e-06 8.41837e-06 8.41866e-06 6.89516e-06 6.89575e-06 8.41866e-06 8.41951e-06 -5.06384e-07 -5.05743e-07 6.89575e-06 6.89666e-06 -5.05743e-07 -5.04926e-07 6.89666e-06 6.89781e-06 6.89575e-06 6.89666e-06 8.41951e-06 8.42079e-06 6.89666e-06 6.89781e-06 8.42079e-06 8.42237e-06 8.41837e-06 8.41866e-06 -1.63827e-05 -1.63822e-05 8.41866e-06 8.41951e-06 -1.63822e-05 -1.6381e-05 -1.63827e-05 -1.63822e-05 -7.56926e-05 -7.56917e-05 -1.63822e-05 -1.6381e-05 -7.56917e-05 -7.56899e-05 8.41951e-06 8.42079e-06 -1.6381e-05 -1.63793e-05 8.42079e-06 8.42237e-06 -1.63793e-05 -1.63771e-05 -1.6381e-05 -1.63793e-05 -7.56899e-05 -7.56875e-05 -1.63793e-05 -1.63771e-05 -7.56875e-05 -7.56847e-05 -5.04926e-07 -5.03996e-07 6.89781e-06 6.89912e-06 -5.03996e-07 -5.03006e-07 6.89912e-06 6.90053e-06 6.89781e-06 6.89912e-06 8.42237e-06 8.42415e-06 6.89912e-06 6.90053e-06 8.42415e-06 8.42606e-06 -5.03006e-07 -5.02004e-07 6.90053e-06 6.90194e-06 -5.02004e-07 -5.01043e-07 6.90194e-06 6.90319e-06 6.90053e-06 6.90194e-06 8.42606e-06 8.42798e-06 6.90194e-06 6.90319e-06 8.42798e-06 8.42962e-06 8.42237e-06 8.42415e-06 -1.63771e-05 -1.63748e-05 8.42415e-06 8.42606e-06 -1.63748e-05 -1.63723e-05 -1.63771e-05 -1.63748e-05 -7.56847e-05 -7.56816e-05 -1.63748e-05 -1.63723e-05 -7.56816e-05 -7.56785e-05 8.42606e-06 8.42798e-06 -1.63723e-05 -1.63698e-05 8.42798e-06 8.42962e-06 -1.63698e-05 -1.63676e-05 -1.63723e-05 -1.63698e-05 -7.56785e-05 -7.56754e-05 -1.63698e-05 -1.63676e-05 -7.56754e-05 -7.56725e-05 -7.56926e-05 -7.56917e-05 -0.000162168 -0.000162166 -7.56917e-05 -7.56899e-05 -0.000162166 -0.000162164 -0.000162168 -0.000162166 -0.000263555 -0.000263552 -0.000162166 -0.000162164 -0.000263552 -0.000263548 -7.56899e-05 -7.56875e-05 -0.000162164 -0.00016216 -7.56875e-05 -7.56847e-05 -0.00016216 -0.000162157 -0.000162164 -0.00016216 -0.000263548 -0.000263544 -0.00016216 -0.000162157 -0.000263544 -0.000263539 -0.000263555 -0.000263552 -0.000371013 -0.000371008 -0.000263552 -0.000263548 -0.000371008 -0.000371003 -0.000371013 -0.000371008 -0.000480389 -0.000480382 -0.000371008 -0.000371003 -0.000480382 -0.000480376 -0.000263548 -0.000263544 -0.000371003 -0.000370997 -0.000263544 -0.000263539 -0.000370997 -0.000370992 -0.000371003 -0.000370997 -0.000480376 -0.000480369 -0.000370997 -0.000370992 -0.000480369 -0.000480362 -7.56847e-05 -7.56816e-05 -0.000162157 -0.000162153 -7.56816e-05 -7.56785e-05 -0.000162153 -0.000162149 -0.000162157 -0.000162153 -0.000263539 -0.000263534 -0.000162153 -0.000162149 -0.000263534 -0.00026353 -7.56785e-05 -7.56754e-05 -0.000162149 -0.000162145 -7.56754e-05 -7.56725e-05 -0.000162145 -0.000162142 -0.000162149 -0.000162145 -0.00026353 -0.000263525 -0.000162145 -0.000162142 -0.000263525 -0.000263521 -0.000263539 -0.000263534 -0.000370992 -0.000370986 -0.000263534 -0.00026353 -0.000370986 -0.000370981 -0.000370992 -0.000370986 -0.000480362 -0.000480356 -0.000370986 -0.000370981 -0.000480356 -0.00048035 -0.00026353 -0.000263525 -0.000370981 -0.000370976 -0.000263525 -0.000263521 -0.000370976 -0.000370971 -0.000370981 -0.000370976 -0.00048035 -0.000480344 -0.000370976 -0.000370971 -0.000480344 -0.000480339 -5.01043e-07 -5.00183e-07 6.90319e-06 6.90398e-06 -5.00183e-07 -4.9944e-07 6.90398e-06 6.90421e-06 6.90319e-06 6.90398e-06 8.42962e-06 8.43063e-06 6.90398e-06 6.90421e-06 8.43063e-06 8.43099e-06 -4.9944e-07 -4.98651e-07 6.90421e-06 6.90604e-06 -4.98651e-07 -4.97638e-07 6.90604e-06 6.91482e-06 6.90421e-06 6.90604e-06 8.43099e-06 8.43285e-06 6.90604e-06 6.91482e-06 8.43285e-06 8.44137e-06 8.42962e-06 8.43063e-06 -1.63676e-05 -1.63661e-05 8.43063e-06 8.43099e-06 -1.63661e-05 -1.63652e-05 -1.63676e-05 -1.63661e-05 -7.56725e-05 -7.56703e-05 -1.63661e-05 -1.63652e-05 -7.56703e-05 -7.56689e-05 8.43099e-06 8.43285e-06 -1.63652e-05 -1.63633e-05 8.43285e-06 8.44137e-06 -1.63633e-05 -1.63581e-05 -1.63652e-05 -1.63633e-05 -7.56689e-05 -7.56672e-05 -1.63633e-05 -1.63581e-05 -7.56672e-05 -7.56634e-05 -4.97638e-07 -4.97003e-07 6.91482e-06 6.92672e-06 -4.97003e-07 -4.97938e-07 6.92672e-06 6.90346e-06 6.91482e-06 6.92672e-06 8.44137e-06 8.45526e-06 6.92672e-06 6.90346e-06 8.45526e-06 8.45562e-06 -4.97938e-07 -4.98807e-07 6.90346e-06 6.77014e-06 -4.98807e-07 -4.97994e-07 6.77014e-06 6.46156e-06 6.90346e-06 6.77014e-06 8.45562e-06 8.43302e-06 6.77014e-06 6.46156e-06 8.43302e-06 8.4151e-06 8.44137e-06 8.45526e-06 -1.63581e-05 -1.6351e-05 8.45526e-06 8.45562e-06 -1.6351e-05 -1.6346e-05 -1.63581e-05 -1.6351e-05 -7.56634e-05 -7.56576e-05 -1.6351e-05 -1.6346e-05 -7.56576e-05 -7.56553e-05 8.45562e-06 8.43302e-06 -1.6346e-05 -1.6327e-05 8.43302e-06 8.4151e-06 -1.6327e-05 -1.62504e-05 -1.6346e-05 -1.6327e-05 -7.56553e-05 -7.56604e-05 -1.6327e-05 -1.62504e-05 -7.56604e-05 -7.56739e-05 -7.56725e-05 -7.56703e-05 -0.000162142 -0.000162139 -7.56703e-05 -7.56689e-05 -0.000162139 -0.000162136 -0.000162142 -0.000162139 -0.000263521 -0.000263518 -0.000162139 -0.000162136 -0.000263518 -0.000263514 -7.56689e-05 -7.56672e-05 -0.000162136 -0.000162135 -7.56672e-05 -7.56634e-05 -0.000162135 -0.000162133 -0.000162136 -0.000162135 -0.000263514 -0.000263512 -0.000162135 -0.000162133 -0.000263512 -0.000263511 -0.000263521 -0.000263518 -0.000370971 -0.000370967 -0.000263518 -0.000263514 -0.000370967 -0.000370963 -0.000370971 -0.000370967 -0.000480339 -0.000480335 -0.000370967 -0.000370963 -0.000480335 -0.000480331 -0.000263514 -0.000263512 -0.000370963 -0.00037096 -0.000263512 -0.000263511 -0.00037096 -0.000370958 -0.000370963 -0.00037096 -0.000480331 -0.000480327 -0.00037096 -0.000370958 -0.000480327 -0.000480324 -7.56634e-05 -7.56576e-05 -0.000162133 -0.000162128 -7.56576e-05 -7.56553e-05 -0.000162128 -0.000162122 -0.000162133 -0.000162128 -0.000263511 -0.00026351 -0.000162128 -0.000162122 -0.00026351 -0.000263507 -7.56553e-05 -7.56604e-05 -0.000162122 -0.000162122 -7.56604e-05 -7.56739e-05 -0.000162122 -0.000162134 -0.000162122 -0.000162122 -0.000263507 -0.000263501 -0.000162122 -0.000162134 -0.000263501 -0.000263495 -0.000263511 -0.00026351 -0.000370958 -0.000370956 -0.00026351 -0.000263507 -0.000370956 -0.000370956 -0.000370958 -0.000370956 -0.000480324 -0.000480322 -0.000370956 -0.000370956 -0.000480322 -0.00048032 -0.000263507 -0.000263501 -0.000370956 -0.000370955 -0.000263501 -0.000263495 -0.000370955 -0.000370952 -0.000370956 -0.000370955 -0.00048032 -0.000480318 -0.000370955 -0.000370952 -0.000480318 -0.000480317 -0.000480389 -0.000480382 -0.00059023 -0.000590221 -0.000480382 -0.000480376 -0.000590221 -0.000590212 -0.00059023 -0.000590221 -0.000700174 -0.000700163 -0.000590221 -0.000590212 -0.000700163 -0.000700153 -0.000480376 -0.000480369 -0.000590212 -0.000590204 -0.000480369 -0.000480362 -0.000590204 -0.000590196 -0.000590212 -0.000590204 -0.000700153 -0.000700143 -0.000590204 -0.000590196 -0.000700143 -0.000700135 -0.000700174 -0.000700163 -0.000810133 -0.00081012 -0.000700163 -0.000700153 -0.00081012 -0.000810108 -0.000810133 -0.00081012 -0.000920106 -0.00092009 -0.00081012 -0.000810108 -0.00092009 -0.000920077 -0.000700153 -0.000700143 -0.000810108 -0.000810097 -0.000700143 -0.000700135 -0.000810097 -0.000810088 -0.000810108 -0.000810097 -0.000920077 -0.000920065 -0.000810097 -0.000810088 -0.000920065 -0.000920055 -0.000480362 -0.000480356 -0.000590196 -0.000590189 -0.000480356 -0.00048035 -0.000590189 -0.000590183 -0.000590196 -0.000590189 -0.000700135 -0.000700127 -0.000590189 -0.000590183 -0.000700127 -0.00070012 -0.00048035 -0.000480344 -0.000590183 -0.000590177 -0.000480344 -0.000480339 -0.000590177 -0.000590172 -0.000590183 -0.000590177 -0.00070012 -0.000700114 -0.000590177 -0.000590172 -0.000700114 -0.000700109 -0.000700135 -0.000700127 -0.000810088 -0.00081008 -0.000700127 -0.00070012 -0.00081008 -0.000810074 -0.000810088 -0.00081008 -0.000920055 -0.000920048 -0.00081008 -0.000810074 -0.000920048 -0.000920041 -0.00070012 -0.000700114 -0.000810074 -0.000810068 -0.000700114 -0.000700109 -0.000810068 -0.000810063 -0.000810074 -0.000810068 -0.000920041 -0.000920036 -0.000810068 -0.000810063 -0.000920036 -0.000920032 -0.000920106 -0.00092009 -0.00103008 -0.00103006 -0.00092009 -0.000920077 -0.00103006 -0.00103005 -0.00103008 -0.00103006 -0.00114006 -0.00114004 -0.00103006 -0.00103005 -0.00114004 -0.00114003 -0.000920077 -0.000920065 -0.00103005 -0.00103004 -0.000920065 -0.000920055 -0.00103004 -0.00103003 -0.00103005 -0.00103004 -0.00114003 -0.00114002 -0.00103004 -0.00103003 -0.00114002 -0.00114001 -0.00114006 -0.00114004 -0.00125005 -0.00125002 -0.00114004 -0.00114003 -0.00125002 -0.00125001 -0.00125005 -0.00125002 -0.00136 -0.00136 -0.00125002 -0.00125001 -0.00136 -0.00136 -0.00114003 -0.00114002 -0.00125001 -0.00125001 -0.00114002 -0.00114001 -0.00125001 -0.00125 -0.00125001 -0.00125001 -0.00136 -0.00136 -0.00125001 -0.00125 -0.00136 -0.00136 -0.000920055 -0.000920048 -0.00103003 -0.00103002 -0.000920048 -0.000920041 -0.00103002 -0.00103002 -0.00103003 -0.00103002 -0.00114001 -0.00114001 -0.00103002 -0.00103002 -0.00114001 -0.00114 -0.000920041 -0.000920036 -0.00103002 -0.00103001 -0.000920036 -0.000920032 -0.00103001 -0.00103001 -0.00103002 -0.00103001 -0.00114 -0.00114 -0.00103001 -0.00103001 -0.00114 -0.00114 -0.00114001 -0.00114001 -0.00125 -0.00125 -0.00114001 -0.00114 -0.00125 -0.00125 -0.00125 -0.00125 -0.00136 -0.00136 -0.00125 -0.00125 -0.00136 -0.00136 -0.00114 -0.00114 -0.00125 -0.00124999 -0.00114 -0.00114 -0.00124999 -0.00124999 -0.00125 -0.00124999 -0.00136 -0.00136 -0.00124999 -0.00124999 -0.00136 -0.00136 -0.000480339 -0.000480335 -0.000590172 -0.000590167 -0.000480335 -0.000480331 -0.000590167 -0.000590163 -0.000590172 -0.000590167 -0.000700109 -0.000700105 -0.000590167 -0.000590163 -0.000700105 -0.0007001 -0.000480331 -0.000480327 -0.000590163 -0.000590159 -0.000480327 -0.000480324 -0.000590159 -0.000590156 -0.000590163 -0.000590159 -0.0007001 -0.000700097 -0.000590159 -0.000590156 -0.000700097 -0.000700094 -0.000700109 -0.000700105 -0.000810063 -0.000810059 -0.000700105 -0.0007001 -0.000810059 -0.000810055 -0.000810063 -0.000810059 -0.000920032 -0.000920028 -0.000810059 -0.000810055 -0.000920028 -0.000920025 -0.0007001 -0.000700097 -0.000810055 -0.000810052 -0.000700097 -0.000700094 -0.000810052 -0.000810049 -0.000810055 -0.000810052 -0.000920025 -0.000920022 -0.000810052 -0.000810049 -0.000920022 -0.00092002 -0.000480324 -0.000480322 -0.000590156 -0.000590154 -0.000480322 -0.00048032 -0.000590154 -0.000590151 -0.000590156 -0.000590154 -0.000700094 -0.000700091 -0.000590154 -0.000590151 -0.000700091 -0.000700089 -0.00048032 -0.000480318 -0.000590151 -0.000590149 -0.000480318 -0.000480317 -0.000590149 -0.000590147 -0.000590151 -0.000590149 -0.000700089 -0.000700087 -0.000590149 -0.000590147 -0.000700087 -0.000700085 -0.000700094 -0.000700091 -0.000810049 -0.000810046 -0.000700091 -0.000700089 -0.000810046 -0.000810044 -0.000810049 -0.000810046 -0.00092002 -0.000920017 -0.000810046 -0.000810044 -0.000920017 -0.000920015 -0.000700089 -0.000700087 -0.000810044 -0.000810042 -0.000700087 -0.000700085 -0.000810042 -0.00081004 -0.000810044 -0.000810042 -0.000920015 -0.000920013 -0.000810042 -0.00081004 -0.000920013 -0.000920011 -0.000920032 -0.000920028 -0.00103001 -0.00103 -0.000920028 -0.000920025 -0.00103 -0.00103 -0.00103001 -0.00103 -0.00114 -0.00113999 -0.00103 -0.00103 -0.00113999 -0.00113999 -0.000920025 -0.000920022 -0.00103 -0.00103 -0.000920022 -0.00092002 -0.00103 -0.00103 -0.00103 -0.00103 -0.00113999 -0.00113999 -0.00103 -0.00103 -0.00113999 -0.00113999 -0.00114 -0.00113999 -0.00124999 -0.00124999 -0.00113999 -0.00113999 -0.00124999 -0.00124999 -0.00124999 -0.00124999 -0.00136 -0.00136 -0.00124999 -0.00124999 -0.00136 -0.00136 -0.00113999 -0.00113999 -0.00124999 -0.00124999 -0.00113999 -0.00113999 -0.00124999 -0.00124999 -0.00124999 -0.00124999 -0.00136 -0.00136 -0.00124999 -0.00124999 -0.00136 -0.00136 -0.00092002 -0.000920017 -0.00103 -0.00103 -0.000920017 -0.000920015 -0.00103 -0.00102999 -0.00103 -0.00103 -0.00113999 -0.00113999 -0.00103 -0.00102999 -0.00113999 -0.00113999 -0.000920015 -0.000920013 -0.00102999 -0.00102999 -0.000920013 -0.000920011 -0.00102999 -0.00102999 -0.00102999 -0.00102999 -0.00113999 -0.00113999 -0.00102999 -0.00102999 -0.00113999 -0.00113998 -0.00113999 -0.00113999 -0.00124999 -0.00124999 -0.00113999 -0.00113999 -0.00124999 -0.00124999 -0.00124999 -0.00124999 -0.00136 -0.00136 -0.00124999 -0.00124999 -0.00136 -0.00136 -0.00113999 -0.00113999 -0.00124999 -0.00124999 -0.00113999 -0.00113998 -0.00124999 -0.00124999 -0.00124999 -0.00124999 -0.00136 -0.00136 -0.00124999 -0.00124999 -0.00136 -0.00136 -4.97994e-07 4.30321e-08 6.46156e-06 5.88187e-06 4.30321e-08 -5.6109e-07 5.88187e-06 5.51351e-06 6.46156e-06 5.88187e-06 8.4151e-06 8.48035e-06 5.88187e-06 5.51351e-06 8.48035e-06 8.53416e-06 -5.6109e-07 -9.79583e-07 5.51351e-06 5.27489e-06 -9.79583e-07 -1.07434e-06 5.27489e-06 5.22507e-06 5.51351e-06 5.27489e-06 8.53416e-06 8.55745e-06 5.27489e-06 5.22507e-06 8.55745e-06 8.56675e-06 8.4151e-06 8.48035e-06 -1.62504e-05 -1.61372e-05 8.48035e-06 8.53416e-06 -1.61372e-05 -1.60593e-05 -1.62504e-05 -1.61372e-05 -7.56739e-05 -7.56969e-05 -1.61372e-05 -1.60593e-05 -7.56969e-05 -7.57302e-05 8.53416e-06 8.55745e-06 -1.60593e-05 -1.605e-05 8.55745e-06 8.56675e-06 -1.605e-05 -1.60568e-05 -1.60593e-05 -1.605e-05 -7.57302e-05 -7.57551e-05 -1.605e-05 -1.60568e-05 -7.57551e-05 -7.57579e-05 -1.07434e-06 -1.03996e-06 5.22507e-06 5.27687e-06 -1.03996e-06 -9.93022e-07 5.27687e-06 5.31845e-06 5.22507e-06 5.27687e-06 8.56675e-06 8.59109e-06 5.27687e-06 5.31845e-06 8.59109e-06 8.60928e-06 -9.93022e-07 -9.7503e-07 5.31845e-06 5.32437e-06 -9.7503e-07 -9.79512e-07 5.32437e-06 5.31811e-06 5.31845e-06 5.32437e-06 8.60928e-06 8.61207e-06 5.32437e-06 5.31811e-06 8.61207e-06 8.60977e-06 8.56675e-06 8.59109e-06 -1.60568e-05 -1.60508e-05 8.59109e-06 8.60928e-06 -1.60508e-05 -1.60411e-05 -1.60568e-05 -1.60508e-05 -7.57579e-05 -7.57474e-05 -1.60508e-05 -1.60411e-05 -7.57474e-05 -7.57398e-05 8.60928e-06 8.61207e-06 -1.60411e-05 -1.60375e-05 8.61207e-06 8.60977e-06 -1.60375e-05 -1.60378e-05 -1.60411e-05 -1.60375e-05 -7.57398e-05 -7.57382e-05 -1.60375e-05 -1.60378e-05 -7.57382e-05 -7.57382e-05 -7.56739e-05 -7.56969e-05 -0.000162134 -0.000162156 -7.56969e-05 -7.57302e-05 -0.000162156 -0.00016217 -0.000162134 -0.000162156 -0.000263495 -0.000263488 -0.000162156 -0.00016217 -0.000263488 -0.000263478 -7.57302e-05 -7.57551e-05 -0.00016217 -0.000162169 -7.57551e-05 -7.57579e-05 -0.000162169 -0.000162157 -0.00016217 -0.000162169 -0.000263478 -0.000263469 -0.000162169 -0.000162157 -0.000263469 -0.000263465 -0.000263495 -0.000263488 -0.000370952 -0.000370948 -0.000263488 -0.000263478 -0.000370948 -0.000370944 -0.000370952 -0.000370948 -0.000480317 -0.000480316 -0.000370948 -0.000370944 -0.000480316 -0.000480315 -0.000263478 -0.000263469 -0.000370944 -0.000370943 -0.000263469 -0.000263465 -0.000370943 -0.000370943 -0.000370944 -0.000370943 -0.000480315 -0.000480314 -0.000370943 -0.000370943 -0.000480314 -0.000480311 -7.57579e-05 -7.57474e-05 -0.000162157 -0.000162149 -7.57474e-05 -7.57398e-05 -0.000162149 -0.000162148 -0.000162157 -0.000162149 -0.000263465 -0.000263464 -0.000162149 -0.000162148 -0.000263464 -0.000263464 -7.57398e-05 -7.57382e-05 -0.000162148 -0.000162147 -7.57382e-05 -7.57382e-05 -0.000162147 -0.000162146 -0.000162148 -0.000162147 -0.000263464 -0.000263462 -0.000162147 -0.000162146 -0.000263462 -0.000263458 -0.000263465 -0.000263464 -0.000370943 -0.000370942 -0.000263464 -0.000263464 -0.000370942 -0.00037094 -0.000370943 -0.000370942 -0.000480311 -0.000480308 -0.000370942 -0.00037094 -0.000480308 -0.000480305 -0.000263464 -0.000263462 -0.00037094 -0.000370936 -0.000263462 -0.000263458 -0.000370936 -0.000370931 -0.00037094 -0.000370936 -0.000480305 -0.0004803 -0.000370936 -0.000370931 -0.0004803 -0.000480296 -9.79512e-07 -9.8447e-07 5.31811e-06 5.31566e-06 -9.8447e-07 -9.82948e-07 5.31566e-06 5.3176e-06 5.31811e-06 5.31566e-06 8.60977e-06 8.6093e-06 5.31566e-06 5.3176e-06 8.6093e-06 8.61089e-06 -9.82948e-07 -9.79383e-07 5.3176e-06 5.32036e-06 -9.79383e-07 -9.76804e-07 5.32036e-06 5.32231e-06 5.3176e-06 5.32036e-06 8.61089e-06 8.61315e-06 5.32036e-06 5.32231e-06 8.61315e-06 8.61514e-06 8.60977e-06 8.6093e-06 -1.60378e-05 -1.60377e-05 8.6093e-06 8.61089e-06 -1.60377e-05 -1.60358e-05 -1.60378e-05 -1.60377e-05 -7.57382e-05 -7.57367e-05 -1.60377e-05 -1.60358e-05 -7.57367e-05 -7.57337e-05 8.61089e-06 8.61315e-06 -1.60358e-05 -1.60331e-05 8.61315e-06 8.61514e-06 -1.60331e-05 -1.60307e-05 -1.60358e-05 -1.60331e-05 -7.57337e-05 -7.57304e-05 -1.60331e-05 -1.60307e-05 -7.57304e-05 -7.57274e-05 -9.76804e-07 -9.75134e-07 5.32231e-06 5.32365e-06 -9.75134e-07 -9.73845e-07 5.32365e-06 5.32473e-06 5.32231e-06 5.32365e-06 8.61514e-06 8.61667e-06 5.32365e-06 5.32473e-06 8.61667e-06 8.61785e-06 -9.73845e-07 -9.72922e-07 5.32473e-06 5.32549e-06 -9.72922e-07 -9.72581e-07 5.32549e-06 5.32577e-06 5.32473e-06 5.32549e-06 8.61785e-06 8.61867e-06 5.32549e-06 5.32577e-06 8.61867e-06 8.61897e-06 8.61514e-06 8.61667e-06 -1.60307e-05 -1.60288e-05 8.61667e-06 8.61785e-06 -1.60288e-05 -1.60272e-05 -1.60307e-05 -1.60288e-05 -7.57274e-05 -7.57248e-05 -1.60288e-05 -1.60272e-05 -7.57248e-05 -7.57226e-05 8.61785e-06 8.61867e-06 -1.60272e-05 -1.60261e-05 8.61867e-06 8.61897e-06 -1.60261e-05 -1.60257e-05 -1.60272e-05 -1.60261e-05 -7.57226e-05 -7.57209e-05 -1.60261e-05 -1.60257e-05 -7.57209e-05 -7.572e-05 -7.57382e-05 -7.57367e-05 -0.000162146 -0.000162142 -7.57367e-05 -7.57337e-05 -0.000162142 -0.000162138 -0.000162146 -0.000162142 -0.000263458 -0.000263454 -0.000162142 -0.000162138 -0.000263454 -0.00026345 -7.57337e-05 -7.57304e-05 -0.000162138 -0.000162135 -7.57304e-05 -7.57274e-05 -0.000162135 -0.000162131 -0.000162138 -0.000162135 -0.00026345 -0.000263445 -0.000162135 -0.000162131 -0.000263445 -0.000263441 -0.000263458 -0.000263454 -0.000370931 -0.000370927 -0.000263454 -0.00026345 -0.000370927 -0.000370922 -0.000370931 -0.000370927 -0.000480296 -0.000480291 -0.000370927 -0.000370922 -0.000480291 -0.000480285 -0.00026345 -0.000263445 -0.000370922 -0.000370916 -0.000263445 -0.000263441 -0.000370916 -0.000370911 -0.000370922 -0.000370916 -0.000480285 -0.000480279 -0.000370916 -0.000370911 -0.000480279 -0.000480273 -7.57274e-05 -7.57248e-05 -0.000162131 -0.000162127 -7.57248e-05 -7.57226e-05 -0.000162127 -0.000162124 -0.000162131 -0.000162127 -0.000263441 -0.000263436 -0.000162127 -0.000162124 -0.000263436 -0.000263432 -7.57226e-05 -7.57209e-05 -0.000162124 -0.000162121 -7.57209e-05 -7.572e-05 -0.000162121 -0.00016212 -0.000162124 -0.000162121 -0.000263432 -0.000263428 -0.000162121 -0.00016212 -0.000263428 -0.000263424 -0.000263441 -0.000263436 -0.000370911 -0.000370905 -0.000263436 -0.000263432 -0.000370905 -0.0003709 -0.000370911 -0.000370905 -0.000480273 -0.000480266 -0.000370905 -0.0003709 -0.000480266 -0.00048026 -0.000263432 -0.000263428 -0.0003709 -0.000370894 -0.000263428 -0.000263424 -0.000370894 -0.000370889 -0.0003709 -0.000370894 -0.00048026 -0.000480253 -0.000370894 -0.000370889 -0.000480253 -0.000480246 -0.000480317 -0.000480316 -0.000590147 -0.000590145 -0.000480316 -0.000480315 -0.000590145 -0.000590142 -0.000590147 -0.000590145 -0.000700085 -0.000700083 -0.000590145 -0.000590142 -0.000700083 -0.00070008 -0.000480315 -0.000480314 -0.000590142 -0.00059014 -0.000480314 -0.000480311 -0.00059014 -0.000590137 -0.000590142 -0.00059014 -0.00070008 -0.000700078 -0.00059014 -0.000590137 -0.000700078 -0.000700075 -0.000700085 -0.000700083 -0.00081004 -0.000810038 -0.000700083 -0.00070008 -0.000810038 -0.000810036 -0.00081004 -0.000810038 -0.000920011 -0.000920009 -0.000810038 -0.000810036 -0.000920009 -0.000920007 -0.00070008 -0.000700078 -0.000810036 -0.000810033 -0.000700078 -0.000700075 -0.000810033 -0.000810031 -0.000810036 -0.000810033 -0.000920007 -0.000920005 -0.000810033 -0.000810031 -0.000920005 -0.00