# vtk DataFile Version 3.0
#This file was generated by the deal.II library on 2022/11/16 at 21:22:15
ASCII
DATASET UNSTRUCTURED_GRID

POINTS 4096 double
0 0.5 0
0.03125 0.5 0
0 0.53125 0
0.03125 0.53125 0
0.03125 0.5 0
0.0625 0.5 0
0.03125 0.53125 0
0.0625 0.53125 0
0 0.53125 0
0.03125 0.53125 0
0 0.5625 0
0.03125 0.5625 0
0.03125 0.53125 0
0.0625 0.53125 0
0.03125 0.5625 0
0.0625 0.5625 0
0.0625 0.5 0
0.09375 0.5 0
0.0625 0.53125 0
0.09375 0.53125 0
0.09375 0.5 0
0.125 0.5 0
0.09375 0.53125 0
0.125 0.53125 0
0.0625 0.53125 0
0.09375 0.53125 0
0.0625 0.5625 0
0.09375 0.5625 0
0.09375 0.53125 0
0.125 0.53125 0
0.09375 0.5625 0
0.125 0.5625 0
0 0.5625 0
0.03125 0.5625 0
0 0.59375 0
0.03125 0.59375 0
0.03125 0.5625 0
0.0625 0.5625 0
0.03125 0.59375 0
0.0625 0.59375 0
0 0.59375 0
0.03125 0.59375 0
0 0.625 0
0.03125 0.625 0
0.03125 0.59375 0
0.0625 0.59375 0
0.03125 0.625 0
0.0625 0.625 0
0.0625 0.5625 0
0.09375 0.5625 0
0.0625 0.59375 0
0.09375 0.59375 0
0.09375 0.5625 0
0.125 0.5625 0
0.09375 0.59375 0
0.125 0.59375 0
0.0625 0.59375 0
0.09375 0.59375 0
0.0625 0.625 0
0.09375 0.625 0
0.09375 0.59375 0
0.125 0.59375 0
0.09375 0.625 0
0.125 0.625 0
0.125 0.5 0
0.15625 0.5 0
0.125 0.53125 0
0.15625 0.53125 0
0.15625 0.5 0
0.1875 0.5 0
0.15625 0.53125 0
0.1875 0.53125 0
0.125 0.53125 0
0.15625 0.53125 0
0.125 0.5625 0
0.15625 0.5625 0
0.15625 0.53125 0
0.1875 0.53125 0
0.15625 0.5625 0
0.1875 0.5625 0
0.1875 0.5 0
0.21875 0.5 0
0.1875 0.53125 0
0.21875 0.53125 0
0.21875 0.5 0
0.25 0.5 0
0.21875 0.53125 0
0.25 0.53125 0
0.1875 0.53125 0
0.21875 0.53125 0
0.1875 0.5625 0
0.21875 0.5625 0
0.21875 0.53125 0
0.25 0.53125 0
0.21875 0.5625 0
0.25 0.5625 0
0.125 0.5625 0
0.15625 0.5625 0
0.125 0.59375 0
0.15625 0.59375 0
0.15625 0.5625 0
0.1875 0.5625 0
0.15625 0.59375 0
0.1875 0.59375 0
0.125 0.59375 0
0.15625 0.59375 0
0.125 0.625 0
0.15625 0.625 0
0.15625 0.59375 0
0.1875 0.59375 0
0.15625 0.625 0
0.1875 0.625 0
0.1875 0.5625 0
0.21875 0.5625 0
0.1875 0.59375 0
0.21875 0.59375 0
0.21875 0.5625 0
0.25 0.5625 0
0.21875 0.59375 0
0.25 0.59375 0
0.1875 0.59375 0
0.21875 0.59375 0
0.1875 0.625 0
0.21875 0.625 0
0.21875 0.59375 0
0.25 0.59375 0
0.21875 0.625 0
0.25 0.625 0
0 0.625 0
0.03125 0.625 0
0 0.65625 0
0.03125 0.65625 0
0.03125 0.625 0
0.0625 0.625 0
0.03125 0.65625 0
0.0625 0.65625 0
0 0.65625 0
0.03125 0.65625 0
0 0.6875 0
0.03125 0.6875 0
0.03125 0.65625 0
0.0625 0.65625 0
0.03125 0.6875 0
0.0625 0.6875 0
0.0625 0.625 0
0.09375 0.625 0
0.0625 0.65625 0
0.09375 0.65625 0
0.09375 0.625 0
0.125 0.625 0
0.09375 0.65625 0
0.125 0.65625 0
0.0625 0.65625 0
0.09375 0.65625 0
0.0625 0.6875 0
0.09375 0.6875 0
0.09375 0.65625 0
0.125 0.65625 0
0.09375 0.6875 0
0.125 0.6875 0
0 0.6875 0
0.03125 0.6875 0
0 0.71875 0
0.03125 0.71875 0
0.03125 0.6875 0
0.0625 0.6875 0
0.03125 0.71875 0
0.0625 0.71875 0
0 0.71875 0
0.03125 0.71875 0
0 0.75 0
0.03125 0.75 0
0.03125 0.71875 0
0.0625 0.71875 0
0.03125 0.75 0
0.0625 0.75 0
0.0625 0.6875 0
0.09375 0.6875 0
0.0625 0.71875 0
0.09375 0.71875 0
0.09375 0.6875 0
0.125 0.6875 0
0.09375 0.71875 0
0.125 0.71875 0
0.0625 0.71875 0
0.09375 0.71875 0
0.0625 0.75 0
0.09375 0.75 0
0.09375 0.71875 0
0.125 0.71875 0
0.09375 0.75 0
0.125 0.75 0
0.125 0.625 0
0.15625 0.625 0
0.125 0.65625 0
0.15625 0.65625 0
0.15625 0.625 0
0.1875 0.625 0
0.15625 0.65625 0
0.1875 0.65625 0
0.125 0.65625 0
0.15625 0.65625 0
0.125 0.6875 0
0.15625 0.6875 0
0.15625 0.65625 0
0.1875 0.65625 0
0.15625 0.6875 0
0.1875 0.6875 0
0.1875 0.625 0
0.21875 0.625 0
0.1875 0.65625 0
0.21875 0.65625 0
0.21875 0.625 0
0.25 0.625 0
0.21875 0.65625 0
0.25 0.65625 0
0.1875 0.65625 0
0.21875 0.65625 0
0.1875 0.6875 0
0.21875 0.6875 0
0.21875 0.65625 0
0.25 0.65625 0
0.21875 0.6875 0
0.25 0.6875 0
0.125 0.6875 0
0.15625 0.6875 0
0.125 0.71875 0
0.15625 0.71875 0
0.15625 0.6875 0
0.1875 0.6875 0
0.15625 0.71875 0
0.1875 0.71875 0
0.125 0.71875 0
0.15625 0.71875 0
0.125 0.75 0
0.15625 0.75 0
0.15625 0.71875 0
0.1875 0.71875 0
0.15625 0.75 0
0.1875 0.75 0
0.1875 0.6875 0
0.21875 0.6875 0
0.1875 0.71875 0
0.21875 0.71875 0
0.21875 0.6875 0
0.25 0.6875 0
0.21875 0.71875 0
0.25 0.71875 0
0.1875 0.71875 0
0.21875 0.71875 0
0.1875 0.75 0
0.21875 0.75 0
0.21875 0.71875 0
0.25 0.71875 0
0.21875 0.75 0
0.25 0.75 0
0.25 0.5 0
0.28125 0.5 0
0.25 0.53125 0
0.28125 0.53125 0
0.28125 0.5 0
0.3125 0.5 0
0.28125 0.53125 0
0.3125 0.53125 0
0.25 0.53125 0
0.28125 0.53125 0
0.25 0.5625 0
0.28125 0.5625 0
0.28125 0.53125 0
0.3125 0.53125 0
0.28125 0.5625 0
0.3125 0.5625 0
0.3125 0.5 0
0.34375 0.5 0
0.3125 0.53125 0
0.34375 0.53125 0
0.34375 0.5 0
0.375 0.5 0
0.34375 0.53125 0
0.375 0.53125 0
0.3125 0.53125 0
0.34375 0.53125 0
0.3125 0.5625 0
0.34375 0.5625 0
0.34375 0.53125 0
0.375 0.53125 0
0.34375 0.5625 0
0.375 0.5625 0
0.25 0.5625 0
0.28125 0.5625 0
0.25 0.59375 0
0.28125 0.59375 0
0.28125 0.5625 0
0.3125 0.5625 0
0.28125 0.59375 0
0.3125 0.59375 0
0.25 0.59375 0
0.28125 0.59375 0
0.25 0.625 0
0.28125 0.625 0
0.28125 0.59375 0
0.3125 0.59375 0
0.28125 0.625 0
0.3125 0.625 0
0.3125 0.5625 0
0.34375 0.5625 0
0.3125 0.59375 0
0.34375 0.59375 0
0.34375 0.5625 0
0.375 0.5625 0
0.34375 0.59375 0
0.375 0.59375 0
0.3125 0.59375 0
0.34375 0.59375 0
0.3125 0.625 0
0.34375 0.625 0
0.34375 0.59375 0
0.375 0.59375 0
0.34375 0.625 0
0.375 0.625 0
0.375 0.5 0
0.40625 0.5 0
0.375 0.53125 0
0.40625 0.53125 0
0.40625 0.5 0
0.4375 0.5 0
0.40625 0.53125 0
0.4375 0.53125 0
0.375 0.53125 0
0.40625 0.53125 0
0.375 0.5625 0
0.40625 0.5625 0
0.40625 0.53125 0
0.4375 0.53125 0
0.40625 0.5625 0
0.4375 0.5625 0
0.4375 0.5 0
0.46875 0.5 0
0.4375 0.53125 0
0.46875 0.53125 0
0.46875 0.5 0
0.5 0.5 0
0.46875 0.53125 0
0.5 0.53125 0
0.4375 0.53125 0
0.46875 0.53125 0
0.4375 0.5625 0
0.46875 0.5625 0
0.46875 0.53125 0
0.5 0.53125 0
0.46875 0.5625 0
0.5 0.5625 0
0.375 0.5625 0
0.40625 0.5625 0
0.375 0.59375 0
0.40625 0.59375 0
0.40625 0.5625 0
0.4375 0.5625 0
0.40625 0.59375 0
0.4375 0.59375 0
0.375 0.59375 0
0.40625 0.59375 0
0.375 0.625 0
0.40625 0.625 0
0.40625 0.59375 0
0.4375 0.59375 0
0.40625 0.625 0
0.4375 0.625 0
0.4375 0.5625 0
0.46875 0.5625 0
0.4375 0.59375 0
0.46875 0.59375 0
0.46875 0.5625 0
0.5 0.5625 0
0.46875 0.59375 0
0.5 0.59375 0
0.4375 0.59375 0
0.46875 0.59375 0
0.4375 0.625 0
0.46875 0.625 0
0.46875 0.59375 0
0.5 0.59375 0
0.46875 0.625 0
0.5 0.625 0
0.25 0.625 0
0.28125 0.625 0
0.25 0.65625 0
0.28125 0.65625 0
0.28125 0.625 0
0.3125 0.625 0
0.28125 0.65625 0
0.3125 0.65625 0
0.25 0.65625 0
0.28125 0.65625 0
0.25 0.6875 0
0.28125 0.6875 0
0.28125 0.65625 0
0.3125 0.65625 0
0.28125 0.6875 0
0.3125 0.6875 0
0.3125 0.625 0
0.34375 0.625 0
0.3125 0.65625 0
0.34375 0.65625 0
0.34375 0.625 0
0.375 0.625 0
0.34375 0.65625 0
0.375 0.65625 0
0.3125 0.65625 0
0.34375 0.65625 0
0.3125 0.6875 0
0.34375 0.6875 0
0.34375 0.65625 0
0.375 0.65625 0
0.34375 0.6875 0
0.375 0.6875 0
0.25 0.6875 0
0.28125 0.6875 0
0.25 0.71875 0
0.28125 0.71875 0
0.28125 0.6875 0
0.3125 0.6875 0
0.28125 0.71875 0
0.3125 0.71875 0
0.25 0.71875 0
0.28125 0.71875 0
0.25 0.75 0
0.28125 0.75 0
0.28125 0.71875 0
0.3125 0.71875 0
0.28125 0.75 0
0.3125 0.75 0
0.3125 0.6875 0
0.34375 0.6875 0
0.3125 0.71875 0
0.34375 0.71875 0
0.34375 0.6875 0
0.375 0.6875 0
0.34375 0.71875 0
0.375 0.71875 0
0.3125 0.71875 0
0.34375 0.71875 0
0.3125 0.75 0
0.34375 0.75 0
0.34375 0.71875 0
0.375 0.71875 0
0.34375 0.75 0
0.375 0.75 0
0.375 0.625 0
0.40625 0.625 0
0.375 0.65625 0
0.40625 0.65625 0
0.40625 0.625 0
0.4375 0.625 0
0.40625 0.65625 0
0.4375 0.65625 0
0.375 0.65625 0
0.40625 0.65625 0
0.375 0.6875 0
0.40625 0.6875 0
0.40625 0.65625 0
0.4375 0.65625 0
0.40625 0.6875 0
0.4375 0.6875 0
0.4375 0.625 0
0.46875 0.625 0
0.4375 0.65625 0
0.46875 0.65625 0
0.46875 0.625 0
0.5 0.625 0
0.46875 0.65625 0
0.5 0.65625 0
0.4375 0.65625 0
0.46875 0.65625 0
0.4375 0.6875 0
0.46875 0.6875 0
0.46875 0.65625 0
0.5 0.65625 0
0.46875 0.6875 0
0.5 0.6875 0
0.375 0.6875 0
0.40625 0.6875 0
0.375 0.71875 0
0.40625 0.71875 0
0.40625 0.6875 0
0.4375 0.6875 0
0.40625 0.71875 0
0.4375 0.71875 0
0.375 0.71875 0
0.40625 0.71875 0
0.375 0.75 0
0.40625 0.75 0
0.40625 0.71875 0
0.4375 0.71875 0
0.40625 0.75 0
0.4375 0.75 0
0.4375 0.6875 0
0.46875 0.6875 0
0.4375 0.71875 0
0.46875 0.71875 0
0.46875 0.6875 0
0.5 0.6875 0
0.46875 0.71875 0
0.5 0.71875 0
0.4375 0.71875 0
0.46875 0.71875 0
0.4375 0.75 0
0.46875 0.75 0
0.46875 0.71875 0
0.5 0.71875 0
0.46875 0.75 0
0.5 0.75 0
0 0.75 0
0.03125 0.75 0
0 0.78125 0
0.03125 0.78125 0
0.03125 0.75 0
0.0625 0.75 0
0.03125 0.78125 0
0.0625 0.78125 0
0 0.78125 0
0.03125 0.78125 0
0 0.8125 0
0.03125 0.8125 0
0.03125 0.78125 0
0.0625 0.78125 0
0.03125 0.8125 0
0.0625 0.8125 0
0.0625 0.75 0
0.09375 0.75 0
0.0625 0.78125 0
0.09375 0.78125 0
0.09375 0.75 0
0.125 0.75 0
0.09375 0.78125 0
0.125 0.78125 0
0.0625 0.78125 0
0.09375 0.78125 0
0.0625 0.8125 0
0.09375 0.8125 0
0.09375 0.78125 0
0.125 0.78125 0
0.09375 0.8125 0
0.125 0.8125 0
0 0.8125 0
0.03125 0.8125 0
0 0.84375 0
0.03125 0.84375 0
0.03125 0.8125 0
0.0625 0.8125 0
0.03125 0.84375 0
0.0625 0.84375 0
0 0.84375 0
0.03125 0.84375 0
0 0.875 0
0.03125 0.875 0
0.03125 0.84375 0
0.0625 0.84375 0
0.03125 0.875 0
0.0625 0.875 0
0.0625 0.8125 0
0.09375 0.8125 0
0.0625 0.84375 0
0.09375 0.84375 0
0.09375 0.8125 0
0.125 0.8125 0
0.09375 0.84375 0
0.125 0.84375 0
0.0625 0.84375 0
0.09375 0.84375 0
0.0625 0.875 0
0.09375 0.875 0
0.09375 0.84375 0
0.125 0.84375 0
0.09375 0.875 0
0.125 0.875 0
0.125 0.75 0
0.15625 0.75 0
0.125 0.78125 0
0.15625 0.78125 0
0.15625 0.75 0
0.1875 0.75 0
0.15625 0.78125 0
0.1875 0.78125 0
0.125 0.78125 0
0.15625 0.78125 0
0.125 0.8125 0
0.15625 0.8125 0
0.15625 0.78125 0
0.1875 0.78125 0
0.15625 0.8125 0
0.1875 0.8125 0
0.1875 0.75 0
0.21875 0.75 0
0.1875 0.78125 0
0.21875 0.78125 0
0.21875 0.75 0
0.25 0.75 0
0.21875 0.78125 0
0.25 0.78125 0
0.1875 0.78125 0
0.21875 0.78125 0
0.1875 0.8125 0
0.21875 0.8125 0
0.21875 0.78125 0
0.25 0.78125 0
0.21875 0.8125 0
0.25 0.8125 0
0.125 0.8125 0
0.15625 0.8125 0
0.125 0.84375 0
0.15625 0.84375 0
0.15625 0.8125 0
[...]
POINT_DATA 4096
SCALARS x_dis double 1
LOOKUP_TABLE default
-4.87006e-09 -4.87003e-09 1.46499e-08 1.46498e-08 -4.87003e-09 -4.86996e-09 1.46498e-08 1.46495e-08 1.46499e-08 1.46498e-08 -1.00081e-08 -1.00085e-08 1.46498e-08 1.46495e-08 -1.00085e-08 -1.00095e-08 -4.86996e-09 -4.86987e-09 1.46495e-08 1.46493e-08 -4.86987e-09 -4.86979e-09 1.46493e-08 1.4649e-08 1.46495e-08 1.46493e-08 -1.00095e-08 -1.00109e-08 1.46493e-08 1.4649e-08 -1.00109e-08 -1.00122e-08 -1.00081e-08 -1.00085e-08 -8.27768e-08 -8.27766e-08 -1.00085e-08 -1.00095e-08 -8.27766e-08 -8.27762e-08 -8.27768e-08 -8.27766e-08 2.97436e-07 2.97441e-07 -8.27766e-08 -8.27762e-08 2.97441e-07 2.97453e-07 -1.00095e-08 -1.00109e-08 -8.27762e-08 -8.2776e-08 -1.00109e-08 -1.00122e-08 -8.2776e-08 -8.27761e-08 -8.27762e-08 -8.2776e-08 2.97453e-07 2.97468e-07 -8.2776e-08 -8.27761e-08 2.97468e-07 2.97484e-07 -4.86979e-09 -4.86972e-09 1.4649e-08 1.46488e-08 -4.86972e-09 -4.86968e-09 1.46488e-08 1.46487e-08 1.4649e-08 1.46488e-08 -1.00122e-08 -1.00132e-08 1.46488e-08 1.46487e-08 -1.00132e-08 -1.00139e-08 -4.86968e-09 -4.86965e-09 1.46487e-08 1.46487e-08 -4.86965e-09 -4.86964e-09 1.46487e-08 1.46486e-08 1.46487e-08 1.46487e-08 -1.00139e-08 -1.00143e-08 1.46487e-08 1.46486e-08 -1.00143e-08 -1.00145e-08 -1.00122e-08 -1.00132e-08 -8.27761e-08 -8.27765e-08 -1.00132e-08 -1.00139e-08 -8.27765e-08 -8.27768e-08 -8.27761e-08 -8.27765e-08 2.97484e-07 2.97495e-07 -8.27765e-08 -8.27768e-08 2.97495e-07 2.97503e-07 -1.00139e-08 -1.00143e-08 -8.27768e-08 -8.2777e-08 -1.00143e-08 -1.00145e-08 -8.2777e-08 -8.27773e-08 -8.27768e-08 -8.2777e-08 2.97503e-07 2.97507e-07 -8.2777e-08 -8.27773e-08 2.97507e-07 2.97509e-07 2.97436e-07 2.97441e-07 -9.29912e-08 -9.29747e-08 2.97441e-07 2.97453e-07 -9.29747e-08 -9.29296e-08 -9.29912e-08 -9.29747e-08 -1.84014e-06 -1.8401e-06 -9.29747e-08 -9.29296e-08 -1.8401e-06 -1.83998e-06 2.97453e-07 2.97468e-07 -9.29296e-08 -9.2867e-08 2.97468e-07 2.97484e-07 -9.2867e-08 -9.28012e-08 -9.29296e-08 -9.2867e-08 -1.83998e-06 -1.83981e-06 -9.2867e-08 -9.28012e-08 -1.83981e-06 -1.83964e-06 -1.84014e-06 -1.8401e-06 2.79769e-06 2.7978e-06 -1.8401e-06 -1.83998e-06 2.7978e-06 2.79808e-06 2.79769e-06 2.7978e-06 9.86502e-06 9.86524e-06 2.7978e-06 2.79808e-06 9.86524e-06 9.86583e-06 -1.83998e-06 -1.83981e-06 2.79808e-06 2.79846e-06 -1.83981e-06 -1.83964e-06 2.79846e-06 2.79885e-06 2.79808e-06 2.79846e-06 9.86583e-06 9.86659e-06 2.79846e-06 2.79885e-06 9.86659e-06 9.86736e-06 2.97484e-07 2.97495e-07 -9.28012e-08 -9.27451e-08 2.97495e-07 2.97503e-07 -9.27451e-08 -9.27058e-08 -9.28012e-08 -9.27451e-08 -1.83964e-06 -1.83948e-06 -9.27451e-08 -9.27058e-08 -1.83948e-06 -1.83936e-06 2.97503e-07 2.97507e-07 -9.27058e-08 -9.26829e-08 2.97507e-07 2.97509e-07 -9.26829e-08 -9.26714e-08 -9.27058e-08 -9.26829e-08 -1.83936e-06 -1.83929e-06 -9.26829e-08 -9.26714e-08 -1.83929e-06 -1.83925e-06 -1.83964e-06 -1.83948e-06 2.79885e-06 2.79919e-06 -1.83948e-06 -1.83936e-06 2.79919e-06 2.79945e-06 2.79885e-06 2.79919e-06 9.86736e-06 9.86801e-06 2.79919e-06 2.79945e-06 9.86801e-06 9.8685e-06 -1.83936e-06 -1.83929e-06 2.79945e-06 2.79963e-06 -1.83929e-06 -1.83925e-06 2.79963e-06 2.79973e-06 2.79945e-06 2.79963e-06 9.8685e-06 9.86884e-06 2.79963e-06 2.79973e-06 9.86884e-06 9.86905e-06 -4.86964e-09 -4.86965e-09 1.46486e-08 1.46486e-08 -4.86965e-09 -4.86965e-09 1.46486e-08 1.46488e-08 1.46486e-08 1.46486e-08 -1.00145e-08 -1.00145e-08 1.46486e-08 1.46488e-08 -1.00145e-08 -1.00143e-08 -4.86965e-09 -4.8696e-09 1.46488e-08 1.46495e-08 -4.8696e-09 -4.86965e-09 1.46495e-08 1.46464e-08 1.46488e-08 1.46495e-08 -1.00143e-08 -1.0014e-08 1.46495e-08 1.46464e-08 -1.0014e-08 -1.00161e-08 -1.00145e-08 -1.00145e-08 -8.27773e-08 -8.27774e-08 -1.00145e-08 -1.00143e-08 -8.27774e-08 -8.27773e-08 -8.27773e-08 -8.27774e-08 2.97509e-07 2.97509e-07 -8.27774e-08 -8.27773e-08 2.97509e-07 2.97509e-07 -1.00143e-08 -1.0014e-08 -8.27773e-08 -8.27771e-08 -1.0014e-08 -1.00161e-08 -8.27771e-08 -8.27782e-08 -8.27773e-08 -8.27771e-08 2.97509e-07 2.9751e-07 -8.27771e-08 -8.27782e-08 2.9751e-07 2.9751e-07 -4.86965e-09 -4.86991e-09 1.46464e-08 1.46415e-08 -4.86991e-09 -4.8693e-09 1.46415e-08 1.46702e-08 1.46464e-08 1.46415e-08 -1.00161e-08 -1.00168e-08 1.46415e-08 1.46702e-08 -1.00168e-08 -1.00082e-08 -4.8693e-09 -4.86923e-09 1.46702e-08 1.47352e-08 -4.86923e-09 -4.87233e-09 1.47352e-08 1.4505e-08 1.46702e-08 1.47352e-08 -1.00082e-08 -1.0026e-08 1.47352e-08 1.4505e-08 -1.0026e-08 -9.86416e-09 -1.00161e-08 -1.00168e-08 -8.27782e-08 -8.27792e-08 -1.00168e-08 -1.00082e-08 -8.27792e-08 -8.2775e-08 -8.27782e-08 -8.27792e-08 2.9751e-07 2.97508e-07 -8.27792e-08 -8.2775e-08 2.97508e-07 2.97506e-07 -1.00082e-08 -1.0026e-08 -8.2775e-08 -8.27647e-08 -1.0026e-08 -9.86416e-09 -8.27647e-08 -8.28287e-08 -8.2775e-08 -8.27647e-08 2.97506e-07 2.9751e-07 -8.27647e-08 -8.28287e-08 2.9751e-07 2.97522e-07 2.97509e-07 2.97509e-07 -9.26714e-08 -9.26664e-08 2.97509e-07 2.97509e-07 -9.26664e-08 -9.26649e-08 -9.26714e-08 -9.26664e-08 -1.83925e-06 -1.83923e-06 -9.26664e-08 -9.26649e-08 -1.83923e-06 -1.83922e-06 2.97509e-07 2.9751e-07 -9.26649e-08 -9.26646e-08 2.9751e-07 2.9751e-07 -9.26646e-08 -9.26643e-08 -9.26649e-08 -9.26646e-08 -1.83922e-06 -1.83922e-06 -9.26646e-08 -9.26643e-08 -1.83922e-06 -1.83922e-06 -1.83925e-06 -1.83923e-06 2.79973e-06 2.79978e-06 -1.83923e-06 -1.83922e-06 2.79978e-06 2.7998e-06 2.79973e-06 2.79978e-06 9.86905e-06 9.86916e-06 2.79978e-06 2.7998e-06 9.86916e-06 9.8692e-06 -1.83922e-06 -1.83922e-06 2.7998e-06 2.79981e-06 -1.83922e-06 -1.83922e-06 2.79981e-06 2.79981e-06 2.7998e-06 2.79981e-06 9.8692e-06 9.86921e-06 2.79981e-06 2.79981e-06 9.86921e-06 9.86922e-06 2.9751e-07 2.97508e-07 -9.26643e-08 -9.26636e-08 2.97508e-07 2.97506e-07 -9.26636e-08 -9.26656e-08 -9.26643e-08 -9.26636e-08 -1.83922e-06 -1.83922e-06 -9.26636e-08 -9.26656e-08 -1.83922e-06 -1.83922e-06 2.97506e-07 2.9751e-07 -9.26656e-08 -9.26695e-08 2.9751e-07 2.97522e-07 -9.26695e-08 -9.26671e-08 -9.26656e-08 -9.26695e-08 -1.83922e-06 -1.83922e-06 -9.26695e-08 -9.26671e-08 -1.83922e-06 -1.83922e-06 -1.83922e-06 -1.83922e-06 2.79981e-06 2.79981e-06 -1.83922e-06 -1.83922e-06 2.79981e-06 2.79981e-06 2.79981e-06 2.79981e-06 9.86922e-06 9.86922e-06 2.79981e-06 2.79981e-06 9.86922e-06 9.86922e-06 -1.83922e-06 -1.83922e-06 2.79981e-06 2.79981e-06 -1.83922e-06 -1.83922e-06 2.79981e-06 2.79981e-06 2.79981e-06 2.79981e-06 9.86922e-06 9.86922e-06 2.79981e-06 2.79981e-06 9.86922e-06 9.86922e-06 9.86502e-06 9.86524e-06 -1.19685e-05 -1.1968e-05 9.86524e-06 9.86583e-06 -1.1968e-05 -1.19669e-05 -1.19685e-05 -1.1968e-05 -7.85897e-05 -7.85884e-05 -1.1968e-05 -1.19669e-05 -7.85884e-05 -7.85864e-05 9.86583e-06 9.86659e-06 -1.19669e-05 -1.19656e-05 9.86659e-06 9.86736e-06 -1.19656e-05 -1.19643e-05 -1.19669e-05 -1.19656e-05 -7.85864e-05 -7.85842e-05 -1.19656e-05 -1.19643e-05 -7.85842e-05 -7.85821e-05 -7.85897e-05 -7.85884e-05 -0.000173942 -0.000173938 -7.85884e-05 -7.85864e-05 -0.000173938 -0.000173935 -0.000173942 -0.000173938 -0.000280713 -0.000280707 -0.000173938 -0.000173935 -0.000280707 -0.000280702 -7.85864e-05 -7.85842e-05 -0.000173935 -0.000173932 -7.85842e-05 -7.85821e-05 -0.000173932 -0.000173929 -0.000173935 -0.000173932 -0.000280702 -0.000280697 -0.000173932 -0.000173929 -0.000280697 -0.000280694 9.86736e-06 9.86801e-06 -1.19643e-05 -1.19631e-05 9.86801e-06 9.8685e-06 -1.19631e-05 -1.19623e-05 -1.19643e-05 -1.19631e-05 -7.85821e-05 -7.85805e-05 -1.19631e-05 -1.19623e-05 -7.85805e-05 -7.85792e-05 9.8685e-06 9.86884e-06 -1.19623e-05 -1.19617e-05 9.86884e-06 9.86905e-06 -1.19617e-05 -1.19614e-05 -1.19623e-05 -1.19617e-05 -7.85792e-05 -7.85783e-05 -1.19617e-05 -1.19614e-05 -7.85783e-05 -7.85778e-05 -7.85821e-05 -7.85805e-05 -0.000173929 -0.000173926 -7.85805e-05 -7.85792e-05 -0.000173926 -0.000173925 -0.000173929 -0.000173926 -0.000280694 -0.000280691 -0.000173926 -0.000173925 -0.000280691 -0.000280689 -7.85792e-05 -7.85783e-05 -0.000173925 -0.000173924 -7.85783e-05 -7.85778e-05 -0.000173924 -0.000173923 -0.000173925 -0.000173924 -0.000280689 -0.000280687 -0.000173924 -0.000173923 -0.000280687 -0.000280687 -0.000280713 -0.000280707 -0.000390145 -0.000390136 -0.000280707 -0.000280702 -0.000390136 -0.00039013 -0.000390145 -0.000390136 -0.00050008 -0.000500069 -0.000390136 -0.00039013 -0.000500069 -0.000500061 -0.000280702 -0.000280697 -0.00039013 -0.000390124 -0.000280697 -0.000280694 -0.000390124 -0.00039012 -0.00039013 -0.000390124 -0.000500061 -0.000500055 -0.000390124 -0.00039012 -0.000500055 -0.000500052 -0.00050008 -0.000500069 -0.000610042 -0.000610028 -0.000500069 -0.000500061 -0.000610028 -0.000610022 -0.000610042 -0.000610028 -0.00072 -0.00072 -0.000610028 -0.000610022 -0.00072 -0.00072 -0.000500061 -0.000500055 -0.000610022 -0.000610018 -0.000500055 -0.000500052 -0.000610018 -0.000610016 -0.000610022 -0.000610018 -0.00072 -0.00072 -0.000610018 -0.000610016 -0.00072 -0.00072 -0.000280694 -0.000280691 -0.00039012 -0.000390117 -0.000280691 -0.000280689 -0.000390117 -0.000390115 -0.00039012 -0.000390117 -0.000500052 -0.00050005 -0.000390117 -0.000390115 -0.00050005 -0.000500048 -0.000280689 -0.000280687 -0.000390115 -0.000390114 -0.000280687 -0.000280687 -0.000390114 -0.000390113 -0.000390115 -0.000390114 -0.000500048 -0.000500047 -0.000390114 -0.000390113 -0.000500047 -0.000500046 -0.000500052 -0.00050005 -0.000610016 -0.000610015 -0.00050005 -0.000500048 -0.000610015 -0.000610014 -0.000610016 -0.000610015 -0.00072 -0.00072 -0.000610015 -0.000610014 -0.00072 -0.00072 -0.000500048 -0.000500047 -0.000610014 -0.000610014 -0.000500047 -0.000500046 -0.000610014 -0.000610013 -0.000610014 -0.000610014 -0.00072 -0.00072 -0.000610014 -0.000610013 -0.00072 -0.00072 9.86905e-06 9.86916e-06 -1.19614e-05 -1.19612e-05 9.86916e-06 9.8692e-06 -1.19612e-05 -1.19611e-05 -1.19614e-05 -1.19612e-05 -7.85778e-05 -7.85775e-05 -1.19612e-05 -1.19611e-05 -7.85775e-05 -7.85774e-05 9.8692e-06 9.86921e-06 -1.19611e-05 -1.19611e-05 9.86921e-06 9.86922e-06 -1.19611e-05 -1.19611e-05 -1.19611e-05 -1.19611e-05 -7.85774e-05 -7.85773e-05 -1.19611e-05 -1.19611e-05 -7.85773e-05 -7.85773e-05 -7.85778e-05 -7.85775e-05 -0.000173923 -0.000173922 -7.85775e-05 -7.85774e-05 -0.000173922 -0.000173922 -0.000173923 -0.000173922 -0.000280687 -0.000280686 -0.000173922 -0.000173922 -0.000280686 -0.000280686 -7.85774e-05 -7.85773e-05 -0.000173922 -0.000173922 -7.85773e-05 -7.85773e-05 -0.000173922 -0.000173922 -0.000173922 -0.000173922 -0.000280686 -0.000280686 -0.000173922 -0.000173922 -0.000280686 -0.000280686 9.86922e-06 9.86922e-06 -1.19611e-05 -1.19611e-05 9.86922e-06 9.86922e-06 -1.19611e-05 -1.19611e-05 -1.19611e-05 -1.19611e-05 -7.85773e-05 -7.85773e-05 -1.19611e-05 -1.19611e-05 -7.85773e-05 -7.85773e-05 9.86922e-06 9.86922e-06 -1.19611e-05 -1.19611e-05 9.86922e-06 9.86922e-06 -1.19611e-05 -1.19611e-05 -1.19611e-05 -1.19611e-05 -7.85773e-05 -7.85773e-05 -1.19611e-05 -1.19611e-05 -7.85773e-05 -7.85773e-05 -7.85773e-05 -7.85773e-05 -0.000173922 -0.000173922 -7.85773e-05 -7.85773e-05 -0.000173922 -0.000173922 -0.000173922 -0.000173922 -0.000280686 -0.000280686 -0.000173922 -0.000173922 -0.000280686 -0.000280686 -7.85773e-05 -7.85773e-05 -0.000173922 -0.000173922 -7.85773e-05 -7.85773e-05 -0.000173922 -0.000173922 -0.000173922 -0.000173922 -0.000280686 -0.000280686 -0.000173922 -0.000173922 -0.000280686 -0.000280686 -0.000280687 -0.000280686 -0.000390113 -0.000390113 -0.000280686 -0.000280686 -0.000390113 -0.000390112 -0.000390113 -0.000390113 -0.000500046 -0.000500046 -0.000390113 -0.000390112 -0.000500046 -0.000500046 -0.000280686 -0.000280686 -0.000390112 -0.000390112 -0.000280686 -0.000280686 -0.000390112 -0.000390112 -0.000390112 -0.000390112 -0.000500046 -0.000500045 -0.000390112 -0.000390112 -0.000500045 -0.000500045 -0.000500046 -0.000500046 -0.000610013 -0.000610013 -0.000500046 -0.000500046 -0.000610013 -0.000610013 -0.000610013 -0.000610013 -0.00072 -0.00072 -0.000610013 -0.000610013 -0.00072 -0.00072 -0.000500046 -0.000500045 -0.000610013 -0.000610013 -0.000500045 -0.000500045 -0.000610013 -0.000610013 -0.000610013 -0.000610013 -0.00072 -0.00072 -0.000610013 -0.000610013 -0.00072 -0.00072 -0.000280686 -0.000280686 -0.000390112 -0.000390112 -0.000280686 -0.000280686 -0.000390112 -0.000390112 -0.000390112 -0.000390112 -0.000500045 -0.000500045 -0.000390112 -0.000390112 -0.000500045 -0.000500045 -0.000280686 -0.000280686 -0.000390112 -0.000390112 -0.000280686 -0.000280686 -0.000390112 -0.000390112 -0.000390112 -0.000390112 -0.000500045 -0.000500045 -0.000390112 -0.000390112 -0.000500045 -0.000500045 -0.000500045 -0.000500045 -0.000610013 -0.000610013 -0.000500045 -0.000500045 -0.000610013 -0.000610013 -0.000610013 -0.000610013 -0.00072 -0.00072 -0.000610013 -0.000610013 -0.00072 -0.00072 -0.000500045 -0.000500045 -0.000610013 -0.000610013 -0.000500045 -0.000500045 -0.000610013 -0.000610013 -0.000610013 -0.000610013 -0.00072 -0.00072 -0.000610013 -0.000610013 -0.00072 -0.00072 -4.87233e-09 -8.55715e-09 1.4505e-08 1.46762e-08 -8.55715e-09 -1.01176e-08 1.46762e-08 1.48245e-08 1.4505e-08 1.46762e-08 -9.86416e-09 -9.6273e-09 1.46762e-08 1.48245e-08 -9.6273e-09 -9.55485e-09 -1.01176e-08 -9.87644e-09 1.48245e-08 1.49774e-08 -9.87644e-09 -9.69654e-09 1.49774e-08 1.50389e-08 1.48245e-08 1.49774e-08 -9.55485e-09 -9.60516e-09 1.49774e-08 1.50389e-08 -9.60516e-09 -9.60636e-09 -9.86416e-09 -9.6273e-09 -8.28287e-08 -8.29611e-08 -9.6273e-09 -9.55485e-09 -8.29611e-08 -8.30328e-08 -8.28287e-08 -8.29611e-08 2.97522e-07 2.97545e-07 -8.29611e-08 -8.30328e-08 2.97545e-07 2.97573e-07 -9.55485e-09 -9.60516e-09 -8.30328e-08 -8.30164e-08 -9.60516e-09 -9.60636e-09 -8.30164e-08 -8.30016e-08 -8.30328e-08 -8.30164e-08 2.97573e-07 2.97582e-07 -8.30164e-08 -8.30016e-08 2.97582e-07 2.97575e-07 -9.69654e-09 -9.72227e-09 1.50389e-08 1.50123e-08 -9.72227e-09 -9.74518e-09 1.50123e-08 1.5e-08 1.50389e-08 1.50123e-08 -9.60636e-09 -9.60187e-09 1.50123e-08 1.5e-08 -9.60187e-09 -9.60556e-09 -9.74518e-09 -9.74143e-09 1.5e-08 1.50049e-08 -9.74143e-09 -9.73826e-09 1.50049e-08 1.50062e-08 1.5e-08 1.50049e-08 -9.60556e-09 -9.60567e-09 1.50049e-08 1.50062e-08 -9.60567e-09 -9.60492e-09 -9.60636e-09 -9.60187e-09 -8.30016e-08 -8.30054e-08 -9.60187e-09 -9.60556e-09 -8.30054e-08 -8.30087e-08 -8.30016e-08 -8.30054e-08 2.97575e-07 2.97571e-07 -8.30054e-08 -8.30087e-08 2.97571e-07 2.97572e-07 -9.60556e-09 -9.60567e-09 -8.30087e-08 -8.30079e-08 -9.60567e-09 -9.60492e-09 -8.30079e-08 -8.30074e-08 -8.30087e-08 -8.30079e-08 2.97572e-07 2.97573e-07 -8.30079e-08 -8.30074e-08 2.97573e-07 2.97574e-07 2.97522e-07 2.97545e-07 -9.26671e-08 -9.26605e-08 2.97545e-07 2.97573e-07 -9.26605e-08 -9.26623e-08 -9.26671e-08 -9.26605e-08 -1.83922e-06 -1.83922e-06 -9.26605e-08 -9.26623e-08 -1.83922e-06 -1.83923e-06 2.97573e-07 2.97582e-07 -9.26623e-08 -9.267e-08 2.97582e-07 2.97575e-07 -9.267e-08 -9.26721e-08 -9.26623e-08 -9.267e-08 -1.83923e-06 -1.83923e-06 -9.267e-08 -9.26721e-08 -1.83923e-06 -1.83922e-06 -1.83922e-06 -1.83922e-06 2.79981e-06 2.79981e-06 -1.83922e-06 -1.83923e-06 2.79981e-06 2.79981e-06 2.79981e-06 2.79981e-06 9.86922e-06 9.86922e-06 2.79981e-06 2.79981e-06 9.86922e-06 9.86922e-06 -1.83923e-06 -1.83923e-06 2.79981e-06 2.79981e-06 -1.83923e-06 -1.83922e-06 2.79981e-06 2.79981e-06 2.79981e-06 2.79981e-06 9.86922e-06 9.86922e-06 2.79981e-06 2.79981e-06 9.86922e-06 9.86922e-06 2.97575e-07 2.97571e-07 -9.26721e-08 -9.26699e-08 2.97571e-07 2.97572e-07 -9.26699e-08 -9.2669e-08 -9.26721e-08 -9.26699e-08 -1.83922e-06 -1.83922e-06 -9.26699e-08 -9.2669e-08 -1.83922e-06 -1.83922e-06 2.97572e-07 2.97573e-07 -9.2669e-08 -9.26678e-08 2.97573e-07 2.97574e-07 -9.26678e-08 -9.26629e-08 -9.2669e-08 -9.26678e-08 -1.83922e-06 -1.83922e-06 -9.26678e-08 -9.26629e-08 -1.83922e-06 -1.8392e-06 -1.83922e-06 -1.83922e-06 2.79981e-06 2.79981e-06 -1.83922e-06 -1.83922e-06 2.79981e-06 2.79982e-06 2.79981e-06 2.79981e-06 9.86922e-06 9.86922e-06 2.79981e-06 2.79982e-06 9.86922e-06 9.86923e-06 -1.83922e-06 -1.83922e-06 2.79982e-06 2.79983e-06 -1.83922e-06 -1.8392e-06 2.79983e-06 2.79988e-06 2.79982e-06 2.79983e-06 9.86923e-06 9.86928e-06 2.79983e-06 2.79988e-06 9.86928e-06 9.86938e-06 -9.73826e-09 -9.73909e-09 1.50062e-08 1.50054e-08 -9.73909e-09 -9.73937e-09 1.50054e-08 1.50053e-08 1.50062e-08 1.50054e-08 -9.60492e-09 -9.60515e-09 1.50054e-08 1.50053e-08 -9.60515e-09 -9.60567e-09 -9.73937e-09 -9.73911e-09 1.50053e-08 1.50052e-08 -9.73911e-09 -9.73897e-09 1.50052e-08 1.5005e-08 1.50053e-08 1.50052e-08 -9.60567e-09 -9.60632e-09 1.50052e-08 1.5005e-08 -9.60632e-09 -9.60732e-09 -9.60492e-09 -9.60515e-09 -8.30074e-08 -8.30078e-08 -9.60515e-09 -9.60567e-09 -8.30078e-08 -8.30082e-08 -8.30074e-08 -8.30078e-08 2.97574e-07 2.97575e-07 -8.30078e-08 -8.30082e-08 2.97575e-07 2.97579e-07 -9.60567e-09 -9.60632e-09 -8.30082e-08 -8.30085e-08 -9.60632e-09 -9.60732e-09 -8.30085e-08 -8.30088e-08 -8.30082e-08 -8.30085e-08 2.97579e-07 2.97587e-07 -8.30085e-08 -8.30088e-08 2.97587e-07 2.97599e-07 -9.73897e-09 -9.73882e-09 1.5005e-08 1.50047e-08 -9.73882e-09 -9.73863e-09 1.50047e-08 1.50044e-08 1.5005e-08 1.50047e-08 -9.60732e-09 -9.60864e-09 1.50047e-08 1.50044e-08 -9.60864e-09 -9.61002e-09 -9.73863e-09 -9.73848e-09 1.50044e-08 1.50041e-08 -9.73848e-09 -9.73843e-09 1.50041e-08 1.5004e-08 1.50044e-08 1.50041e-08 -9.61002e-09 -9.61106e-09 1.50041e-08 1.5004e-08 -9.61106e-09 -9.61144e-09 -9.60732e-09 -9.60864e-09 -8.30088e-08 -8.30089e-08 -9.60864e-09 -9.61002e-09 -8.30089e-08 -8.30087e-08 -8.30088e-08 -8.30089e-08 2.97599e-07 2.97614e-07 -8.30089e-08 -8.30087e-08 2.97614e-07 2.9763e-07 -9.61002e-09 -9.61106e-09 -8.30087e-08 -8.30083e-08 -9.61106e-09 -9.61144e-09 -8.30083e-08 -8.30081e-08 -8.30087e-08 -8.30083e-08 2.9763e-07 2.97642e-07 -8.30083e-08 -8.30081e-08 2.97642e-07 2.97646e-07 2.97574e-07 2.97575e-07 -9.26629e-08 -9.26513e-08 2.97575e-07 2.97579e-07 -9.26513e-08 -9.26285e-08 -9.26629e-08 -9.26513e-08 -1.8392e-06 -1.83916e-06 -9.26513e-08 -9.26285e-08 -1.83916e-06 -1.83908e-06 2.97579e-07 2.97587e-07 -9.26285e-08 -9.25891e-08 2.97587e-07 2.97599e-07 -9.25891e-08 -9.2533e-08 -9.26285e-08 -9.25891e-08 -1.83908e-06 -1.83896e-06 -9.25891e-08 -9.2533e-08 -1.83896e-06 -1.83881e-06 -1.8392e-06 -1.83916e-06 2.79988e-06 2.79999e-06 -1.83916e-06 -1.83908e-06 2.79999e-06 2.80017e-06 2.79988e-06 2.79999e-06 9.86938e-06 9.86959e-06 2.79999e-06 2.80017e-06 9.86959e-06 9.86993e-06 -1.83908e-06 -1.83896e-06 2.80017e-06 2.80043e-06 -1.83896e-06 -1.83881e-06 2.80043e-06 2.80077e-06 2.80017e-06 2.80043e-06 9.86993e-06 9.87043e-06 2.80043e-06 2.80077e-06 9.87043e-06 9.87108e-06 2.97599e-07 2.97614e-07 -9.2533e-08 -9.24672e-08 2.97614e-07 2.9763e-07 -9.24672e-08 -9.24046e-08 -9.2533e-08 -9.24672e-08 -1.83881e-06 -1.83863e-06 -9.24672e-08 -9.24046e-08 -1.83863e-06 -1.83846e-06 2.9763e-07 2.97642e-07 -9.24046e-08 -9.23595e-08 2.97642e-07 2.97646e-07 -9.23595e-08 -9.23431e-08 -9.24046e-08 -9.23595e-08 -1.83846e-06 -1.83834e-06 -9.23595e-08 -9.23431e-08 -1.83834e-06 -1.8383e-06 -1.83881e-06 -1.83863e-06 2.80077e-06 2.80116e-06 -1.83863e-06 -1.83846e-06 2.80116e-06 2.80154e-06 2.80077e-06 2.80116e-06 9.87108e-06 9.87184e-06 2.80116e-06 2.80154e-06 9.87184e-06 9.8726e-06 -1.83846e-06 -1.83834e-06 2.80154e-06 2.80182e-06 -1.83834e-06 -1.8383e-06 2.80182e-06 2.80193e-06 2.80154e-06 2.80182e-06 9.8726e-06 9.87319e-06 2.80182e-06 2.80193e-06 9.87319e-06 9.87341e-06 9.86922e-06 9.86922e-06 -1.19611e-05 -1.19611e-05 9.86922e-06 9.86922e-06 -1.19611e-05 -1.19611e-05 -1.19611e-05 -1.19611e-05 -7.85773e-05 -7.85773e-05 -1.19611e-05 -1.19611e-05 -7.85773e-05 -7.85773e-05 9.86922e-06 9.86922e-06 -1.19611e-05 -1.19611e-05 9.86922e-06 9.86922e-06 -1.19611e-05 -1.19611e-05 -1.19611e-05 -1.19611e-05 -7.85773e-05 -7.85773e-05 -1.19611e-05 -1.19611e-05 -7.85773e-05 -7.85773e-05 -7.85773e-05 -7.85773e-05 -0.000173922 -0.000173922 -7.85773e-05 -7.85773e-05 -0.000173922 -0.000173922 -0.000173922 -0.000173922 -0.000280686 -0.000280686 -0.000173922 -0.000173922 -0.000280686 -0.000280686 -7.85773e-05 -7.85773e-05 -0.000173922 -0.000173922 -7.85773e-05 -7.85773e-05 -0.000173922 -0.000173922 