# vtk DataFile Version 3.0
#This file was generated by the deal.II library on 2022/11/16 at 21:19:17
ASCII
DATASET UNSTRUCTURED_GRID

POINTS 4096 double
0 0.5 0
0.03125 0.5 0
0 0.53125 0
0.03125 0.53125 0
0.03125 0.5 0
0.0625 0.5 0
0.03125 0.53125 0
0.0625 0.53125 0
0 0.53125 0
0.03125 0.53125 0
0 0.5625 0
0.03125 0.5625 0
0.03125 0.53125 0
0.0625 0.53125 0
0.03125 0.5625 0
0.0625 0.5625 0
0.0625 0.5 0
0.09375 0.5 0
0.0625 0.53125 0
0.09375 0.53125 0
0.09375 0.5 0
0.125 0.5 0
0.09375 0.53125 0
0.125 0.53125 0
0.0625 0.53125 0
0.09375 0.53125 0
0.0625 0.5625 0
0.09375 0.5625 0
0.09375 0.53125 0
0.125 0.53125 0
0.09375 0.5625 0
0.125 0.5625 0
0 0.5625 0
0.03125 0.5625 0
0 0.59375 0
0.03125 0.59375 0
0.03125 0.5625 0
0.0625 0.5625 0
0.03125 0.59375 0
0.0625 0.59375 0
0 0.59375 0
0.03125 0.59375 0
0 0.625 0
0.03125 0.625 0
0.03125 0.59375 0
0.0625 0.59375 0
0.03125 0.625 0
0.0625 0.625 0
0.0625 0.5625 0
0.09375 0.5625 0
0.0625 0.59375 0
0.09375 0.59375 0
0.09375 0.5625 0
0.125 0.5625 0
0.09375 0.59375 0
0.125 0.59375 0
0.0625 0.59375 0
0.09375 0.59375 0
0.0625 0.625 0
0.09375 0.625 0
0.09375 0.59375 0
0.125 0.59375 0
0.09375 0.625 0
0.125 0.625 0
0.125 0.5 0
0.15625 0.5 0
0.125 0.53125 0
0.15625 0.53125 0
0.15625 0.5 0
0.1875 0.5 0
0.15625 0.53125 0
0.1875 0.53125 0
0.125 0.53125 0
0.15625 0.53125 0
0.125 0.5625 0
0.15625 0.5625 0
0.15625 0.53125 0
0.1875 0.53125 0
0.15625 0.5625 0
0.1875 0.5625 0
0.1875 0.5 0
0.21875 0.5 0
0.1875 0.53125 0
0.21875 0.53125 0
0.21875 0.5 0
0.25 0.5 0
0.21875 0.53125 0
0.25 0.53125 0
0.1875 0.53125 0
0.21875 0.53125 0
0.1875 0.5625 0
0.21875 0.5625 0
0.21875 0.53125 0
0.25 0.53125 0
0.21875 0.5625 0
0.25 0.5625 0
0.125 0.5625 0
0.15625 0.5625 0
0.125 0.59375 0
0.15625 0.59375 0
0.15625 0.5625 0
0.1875 0.5625 0
0.15625 0.59375 0
0.1875 0.59375 0
0.125 0.59375 0
0.15625 0.59375 0
0.125 0.625 0
0.15625 0.625 0
0.15625 0.59375 0
0.1875 0.59375 0
0.15625 0.625 0
0.1875 0.625 0
0.1875 0.5625 0
0.21875 0.5625 0
0.1875 0.59375 0
0.21875 0.59375 0
0.21875 0.5625 0
0.25 0.5625 0
0.21875 0.59375 0
0.25 0.59375 0
0.1875 0.59375 0
0.21875 0.59375 0
0.1875 0.625 0
0.21875 0.625 0
0.21875 0.59375 0
0.25 0.59375 0
0.21875 0.625 0
0.25 0.625 0
0 0.625 0
0.03125 0.625 0
0 0.65625 0
0.03125 0.65625 0
0.03125 0.625 0
0.0625 0.625 0
0.03125 0.65625 0
0.0625 0.65625 0
0 0.65625 0
0.03125 0.65625 0
0 0.6875 0
0.03125 0.6875 0
0.03125 0.65625 0
0.0625 0.65625 0
0.03125 0.6875 0
0.0625 0.6875 0
0.0625 0.625 0
0.09375 0.625 0
0.0625 0.65625 0
0.09375 0.65625 0
0.09375 0.625 0
0.125 0.625 0
0.09375 0.65625 0
0.125 0.65625 0
0.0625 0.65625 0
0.09375 0.65625 0
0.0625 0.6875 0
0.09375 0.6875 0
0.09375 0.65625 0
0.125 0.65625 0
0.09375 0.6875 0
0.125 0.6875 0
0 0.6875 0
0.03125 0.6875 0
0 0.71875 0
0.03125 0.71875 0
0.03125 0.6875 0
0.0625 0.6875 0
0.03125 0.71875 0
0.0625 0.71875 0
0 0.71875 0
0.03125 0.71875 0
0 0.75 0
0.03125 0.75 0
0.03125 0.71875 0
0.0625 0.71875 0
0.03125 0.75 0
0.0625 0.75 0
0.0625 0.6875 0
0.09375 0.6875 0
0.0625 0.71875 0
0.09375 0.71875 0
0.09375 0.6875 0
0.125 0.6875 0
0.09375 0.71875 0
0.125 0.71875 0
0.0625 0.71875 0
0.09375 0.71875 0
0.0625 0.75 0
0.09375 0.75 0
0.09375 0.71875 0
0.125 0.71875 0
0.09375 0.75 0
0.125 0.75 0
0.125 0.625 0
0.15625 0.625 0
0.125 0.65625 0
0.15625 0.65625 0
0.15625 0.625 0
0.1875 0.625 0
0.15625 0.65625 0
0.1875 0.65625 0
0.125 0.65625 0
0.15625 0.65625 0
0.125 0.6875 0
0.15625 0.6875 0
0.15625 0.65625 0
0.1875 0.65625 0
0.15625 0.6875 0
0.1875 0.6875 0
0.1875 0.625 0
0.21875 0.625 0
0.1875 0.65625 0
0.21875 0.65625 0
0.21875 0.625 0
0.25 0.625 0
0.21875 0.65625 0
0.25 0.65625 0
0.1875 0.65625 0
0.21875 0.65625 0
0.1875 0.6875 0
0.21875 0.6875 0
0.21875 0.65625 0
0.25 0.65625 0
0.21875 0.6875 0
0.25 0.6875 0
0.125 0.6875 0
0.15625 0.6875 0
0.125 0.71875 0
0.15625 0.71875 0
0.15625 0.6875 0
0.1875 0.6875 0
0.15625 0.71875 0
0.1875 0.71875 0
0.125 0.71875 0
0.15625 0.71875 0
0.125 0.75 0
0.15625 0.75 0
0.15625 0.71875 0
0.1875 0.71875 0
0.15625 0.75 0
0.1875 0.75 0
0.1875 0.6875 0
0.21875 0.6875 0
0.1875 0.71875 0
0.21875 0.71875 0
0.21875 0.6875 0
0.25 0.6875 0
0.21875 0.71875 0
0.25 0.71875 0
0.1875 0.71875 0
0.21875 0.71875 0
0.1875 0.75 0
0.21875 0.75 0
0.21875 0.71875 0
0.25 0.71875 0
0.21875 0.75 0
0.25 0.75 0
0.25 0.5 0
0.28125 0.5 0
0.25 0.53125 0
0.28125 0.53125 0
0.28125 0.5 0
0.3125 0.5 0
0.28125 0.53125 0
0.3125 0.53125 0
0.25 0.53125 0
0.28125 0.53125 0
0.25 0.5625 0
0.28125 0.5625 0
0.28125 0.53125 0
0.3125 0.53125 0
0.28125 0.5625 0
0.3125 0.5625 0
0.3125 0.5 0
0.34375 0.5 0
0.3125 0.53125 0
0.34375 0.53125 0
0.34375 0.5 0
0.375 0.5 0
0.34375 0.53125 0
0.375 0.53125 0
0.3125 0.53125 0
0.34375 0.53125 0
0.3125 0.5625 0
0.34375 0.5625 0
0.34375 0.53125 0
0.375 0.53125 0
0.34375 0.5625 0
0.375 0.5625 0
0.25 0.5625 0
0.28125 0.5625 0
0.25 0.59375 0
0.28125 0.59375 0
0.28125 0.5625 0
0.3125 0.5625 0
0.28125 0.59375 0
0.3125 0.59375 0
0.25 0.59375 0
0.28125 0.59375 0
0.25 0.625 0
0.28125 0.625 0
0.28125 0.59375 0
0.3125 0.59375 0
0.28125 0.625 0
0.3125 0.625 0
0.3125 0.5625 0
0.34375 0.5625 0
0.3125 0.59375 0
0.34375 0.59375 0
0.34375 0.5625 0
0.375 0.5625 0
0.34375 0.59375 0
0.375 0.59375 0
0.3125 0.59375 0
0.34375 0.59375 0
0.3125 0.625 0
0.34375 0.625 0
0.34375 0.59375 0
0.375 0.59375 0
0.34375 0.625 0
0.375 0.625 0
0.375 0.5 0
0.40625 0.5 0
0.375 0.53125 0
0.40625 0.53125 0
0.40625 0.5 0
0.4375 0.5 0
0.40625 0.53125 0
0.4375 0.53125 0
0.375 0.53125 0
0.40625 0.53125 0
0.375 0.5625 0
0.40625 0.5625 0
0.40625 0.53125 0
0.4375 0.53125 0
0.40625 0.5625 0
0.4375 0.5625 0
0.4375 0.5 0
0.46875 0.5 0
0.4375 0.53125 0
0.46875 0.53125 0
0.46875 0.5 0
0.5 0.5 0
0.46875 0.53125 0
0.5 0.53125 0
0.4375 0.53125 0
0.46875 0.53125 0
0.4375 0.5625 0
0.46875 0.5625 0
0.46875 0.53125 0
0.5 0.53125 0
0.46875 0.5625 0
0.5 0.5625 0
0.375 0.5625 0
0.40625 0.5625 0
0.375 0.59375 0
0.40625 0.59375 0
0.40625 0.5625 0
0.4375 0.5625 0
0.40625 0.59375 0
0.4375 0.59375 0
0.375 0.59375 0
0.40625 0.59375 0
0.375 0.625 0
0.40625 0.625 0
0.40625 0.59375 0
0.4375 0.59375 0
0.40625 0.625 0
0.4375 0.625 0
0.4375 0.5625 0
0.46875 0.5625 0
0.4375 0.59375 0
0.46875 0.59375 0
0.46875 0.5625 0
0.5 0.5625 0
0.46875 0.59375 0
0.5 0.59375 0
0.4375 0.59375 0
0.46875 0.59375 0
0.4375 0.625 0
0.46875 0.625 0
0.46875 0.59375 0
0.5 0.59375 0
0.46875 0.625 0
0.5 0.625 0
0.25 0.625 0
0.28125 0.625 0
0.25 0.65625 0
0.28125 0.65625 0
0.28125 0.625 0
0.3125 0.625 0
0.28125 0.65625 0
0.3125 0.65625 0
0.25 0.65625 0
0.28125 0.65625 0
0.25 0.6875 0
0.28125 0.6875 0
0.28125 0.65625 0
0.3125 0.65625 0
0.28125 0.6875 0
0.3125 0.6875 0
0.3125 0.625 0
0.34375 0.625 0
0.3125 0.65625 0
0.34375 0.65625 0
0.34375 0.625 0
0.375 0.625 0
0.34375 0.65625 0
0.375 0.65625 0
0.3125 0.65625 0
0.34375 0.65625 0
0.3125 0.6875 0
0.34375 0.6875 0
0.34375 0.65625 0
0.375 0.65625 0
0.34375 0.6875 0
0.375 0.6875 0
0.25 0.6875 0
0.28125 0.6875 0
0.25 0.71875 0
0.28125 0.71875 0
0.28125 0.6875 0
0.3125 0.6875 0
0.28125 0.71875 0
0.3125 0.71875 0
0.25 0.71875 0
0.28125 0.71875 0
0.25 0.75 0
0.28125 0.75 0
0.28125 0.71875 0
0.3125 0.71875 0
0.28125 0.75 0
0.3125 0.75 0
0.3125 0.6875 0
0.34375 0.6875 0
0.3125 0.71875 0
0.34375 0.71875 0
0.34375 0.6875 0
0.375 0.6875 0
0.34375 0.71875 0
0.375 0.71875 0
0.3125 0.71875 0
0.34375 0.71875 0
0.3125 0.75 0
0.34375 0.75 0
0.34375 0.71875 0
0.375 0.71875 0
0.34375 0.75 0
0.375 0.75 0
0.375 0.625 0
0.40625 0.625 0
0.375 0.65625 0
0.40625 0.65625 0
0.40625 0.625 0
0.4375 0.625 0
0.40625 0.65625 0
0.4375 0.65625 0
0.375 0.65625 0
0.40625 0.65625 0
0.375 0.6875 0
0.40625 0.6875 0
0.40625 0.65625 0
0.4375 0.65625 0
0.40625 0.6875 0
0.4375 0.6875 0
0.4375 0.625 0
0.46875 0.625 0
0.4375 0.65625 0
0.46875 0.65625 0
0.46875 0.625 0
0.5 0.625 0
0.46875 0.65625 0
0.5 0.65625 0
0.4375 0.65625 0
0.46875 0.65625 0
0.4375 0.6875 0
0.46875 0.6875 0
0.46875 0.65625 0
0.5 0.65625 0
0.46875 0.6875 0
0.5 0.6875 0
0.375 0.6875 0
0.40625 0.6875 0
0.375 0.71875 0
0.40625 0.71875 0
0.40625 0.6875 0
0.4375 0.6875 0
0.40625 0.71875 0
0.4375 0.71875 0
0.375 0.71875 0
0.40625 0.71875 0
0.375 0.75 0
0.40625 0.75 0
0.40625 0.71875 0
0.4375 0.71875 0
0.40625 0.75 0
0.4375 0.75 0
0.4375 0.6875 0
0.46875 0.6875 0
0.4375 0.71875 0
0.46875 0.71875 0
0.46875 0.6875 0
0.5 0.6875 0
0.46875 0.71875 0
0.5 0.71875 0
0.4375 0.71875 0
0.46875 0.71875 0
0.4375 0.75 0
0.46875 0.75 0
0.46875 0.71875 0
0.5 0.71875 0
0.46875 0.75 0
0.5 0.75 0
0 0.75 0
0.03125 0.75 0
0 0.78125 0
0.03125 0.78125 0
0.03125 0.75 0
0.0625 0.75 0
0.03125 0.78125 0
0.0625 0.78125 0
0 0.78125 0
0.03125 0.78125 0
0 0.8125 0
0.03125 0.8125 0
0.03125 0.78125 0
0.0625 0.78125 0
0.03125 0.8125 0
0.0625 0.8125 0
0.0625 0.75 0
0.09375 0.75 0
0.0625 0.78125 0
0.09375 0.78125 0
0.09375 0.75 0
0.125 0.75 0
0.09375 0.78125 0
0.125 0.78125 0
0.0625 0.78125 0
0.09375 0.78125 0
0.0625 0.8125 0
0.09375 0.8125 0
0.09375 0.78125 0
0.125 0.78125 0
0.09375 0.8125 0
0.125 0.8125 0
0 0.8125 0
0.03125 0.8125 0
0 0.84375 0
0.03125 0.84375 0
0.03125 0.8125 0
0.0625 0.8125 0
0.03125 0.84375 0
0.0625 0.84375 0
0 0.84375 0
0.03125 0.84375 0
0 0.875 0
0.03125 0.875 0
0.03125 0.84375 0
0.0625 0.84375 0
0.03125 0.875 0
0.0625 0.875 0
0.0625 0.8125 0
0.09375 0.8125 0
0.0625 0.84375 0
0.09375 0.84375 0
0.09375 0.8125 0
0.125 0.8125 0
0.09375 0.84375 0
0.125 0.84375 0
0.0625 0.84375 0
0.09375 0.84375 0
0.0625 0.875 0
0.09375 0.875 0
0.09375 0.84375 0
0.125 0.84375 0
0.09375 0.875 0
0.125 0.875 0
0.125 0.75 0
0.15625 0.75 0
0.125 0.78125 0
0.15625 0.78125 0
0.15625 0.75 0
0.1875 0.75 0
0.15625 0.78125 0
0.1875 0.78125 0
0.125 0.78125 0
0.15625 0.78125 0
0.125 0.8125 0
0.15625 0.8125 0
0.15625 0.78125 0
0.1875 0.78125 0
0.15625 0.8125 0
0.1875 0.8125 0
0.1875 0.75 0
0.21875 0.75 0
0.1875 0.78125 0
0.21875 0.78125 0
0.21875 0.75 0
0.25 0.75 0
0.21875 0.78125 0
0.25 0.78125 0
0.1875 0.78125 0
0.21875 0.78125 0
0.1875 0.8125 0
0.21875 0.8125 0
0.21875 0.78125 0
0.25 0.78125 0
0.21875 0.8125 0
0.25 0.8125 0
0.125 0.8125 0
0.15625 0.8125 0
0.125 0.84375 0
0.15625 0.84375 0
0.15625 0.8125 0
[...]
POINT_DATA 4096
SCALARS x_dis double 1
LOOKUP_TABLE default
1.13603e-11 1.13602e-11 -1.85587e-10 -1.85588e-10 1.13602e-11 1.13601e-11 -1.85588e-10 -1.85588e-10 -1.85587e-10 -1.85588e-10 8.33427e-10 8.33428e-10 -1.85588e-10 -1.85588e-10 8.33428e-10 8.3343e-10 1.13601e-11 1.13601e-11 -1.85588e-10 -1.85588e-10 1.13601e-11 1.136e-11 -1.85588e-10 -1.85588e-10 -1.85588e-10 -1.85588e-10 8.3343e-10 8.33432e-10 -1.85588e-10 -1.85588e-10 8.33432e-10 8.33433e-10 8.33427e-10 8.33428e-10 -2.21931e-09 -2.21931e-09 8.33428e-10 8.3343e-10 -2.21931e-09 -2.21932e-09 -2.21931e-09 -2.21931e-09 2.14148e-09 2.14147e-09 -2.21931e-09 -2.21932e-09 2.14147e-09 2.14146e-09 8.3343e-10 8.33432e-10 -2.21932e-09 -2.21932e-09 8.33432e-10 8.33433e-10 -2.21932e-09 -2.21932e-09 -2.21932e-09 -2.21932e-09 2.14146e-09 2.14144e-09 -2.21932e-09 -2.21932e-09 2.14144e-09 2.14143e-09 1.136e-11 1.13599e-11 -1.85588e-10 -1.85587e-10 1.13599e-11 1.13599e-11 -1.85587e-10 -1.85587e-10 -1.85588e-10 -1.85587e-10 8.33433e-10 8.33432e-10 -1.85587e-10 -1.85587e-10 8.33432e-10 8.33433e-10 1.13599e-11 1.13599e-11 -1.85587e-10 -1.85587e-10 1.13599e-11 1.13599e-11 -1.85587e-10 -1.85588e-10 -1.85587e-10 -1.85587e-10 8.33433e-10 8.33433e-10 -1.85587e-10 -1.85588e-10 8.33433e-10 8.33432e-10 8.33433e-10 8.33432e-10 -2.21932e-09 -2.21932e-09 8.33432e-10 8.33433e-10 -2.21932e-09 -2.21933e-09 -2.21932e-09 -2.21932e-09 2.14143e-09 2.14144e-09 -2.21932e-09 -2.21933e-09 2.14144e-09 2.14144e-09 8.33433e-10 8.33433e-10 -2.21933e-09 -2.21933e-09 8.33433e-10 8.33432e-10 -2.21933e-09 -2.21933e-09 -2.21933e-09 -2.21933e-09 2.14144e-09 2.14144e-09 -2.21933e-09 -2.21933e-09 2.14144e-09 2.14144e-09 2.14148e-09 2.14147e-09 1.22136e-08 1.22136e-08 2.14147e-09 2.14146e-09 1.22136e-08 1.22137e-08 1.22136e-08 1.22136e-08 -7.2465e-08 -7.2465e-08 1.22136e-08 1.22137e-08 -7.2465e-08 -7.2465e-08 2.14146e-09 2.14144e-09 1.22137e-08 1.22138e-08 2.14144e-09 2.14143e-09 1.22138e-08 1.22139e-08 1.22137e-08 1.22138e-08 -7.2465e-08 -7.2465e-08 1.22138e-08 1.22139e-08 -7.2465e-08 -7.24649e-08 -7.2465e-08 -7.2465e-08 1.69807e-07 1.69806e-07 -7.2465e-08 -7.2465e-08 1.69806e-07 1.69805e-07 1.69807e-07 1.69806e-07 5.77775e-08 5.77762e-08 1.69806e-07 1.69805e-07 5.77762e-08 5.77738e-08 -7.2465e-08 -7.2465e-08 1.69805e-07 1.69804e-07 -7.2465e-08 -7.24649e-08 1.69804e-07 1.69802e-07 1.69805e-07 1.69804e-07 5.77738e-08 5.77725e-08 1.69804e-07 1.69802e-07 5.77725e-08 5.77717e-08 2.14143e-09 2.14144e-09 1.22139e-08 1.22139e-08 2.14144e-09 2.14144e-09 1.22139e-08 1.22139e-08 1.22139e-08 1.22139e-08 -7.24649e-08 -7.24649e-08 1.22139e-08 1.22139e-08 -7.24649e-08 -7.24649e-08 2.14144e-09 2.14144e-09 1.22139e-08 1.22139e-08 2.14144e-09 2.14144e-09 1.22139e-08 1.22139e-08 1.22139e-08 1.22139e-08 -7.24649e-08 -7.24649e-08 1.22139e-08 1.22139e-08 -7.24649e-08 -7.24649e-08 -7.24649e-08 -7.24649e-08 1.69802e-07 1.69802e-07 -7.24649e-08 -7.24649e-08 1.69802e-07 1.69802e-07 1.69802e-07 1.69802e-07 5.77717e-08 5.77709e-08 1.69802e-07 1.69802e-07 5.77709e-08 5.77708e-08 -7.24649e-08 -7.24649e-08 1.69802e-07 1.69802e-07 -7.24649e-08 -7.24649e-08 1.69802e-07 1.69802e-07 1.69802e-07 1.69802e-07 5.77708e-08 5.7771e-08 1.69802e-07 1.69802e-07 5.7771e-08 5.7771e-08 1.13599e-11 1.13599e-11 -1.85588e-10 -1.85587e-10 1.13599e-11 1.136e-11 -1.85587e-10 -1.85586e-10 -1.85588e-10 -1.85587e-10 8.33432e-10 8.33433e-10 -1.85587e-10 -1.85586e-10 8.33433e-10 8.33433e-10 1.136e-11 1.13599e-11 -1.85586e-10 -1.85594e-10 1.13599e-11 1.13595e-11 -1.85594e-10 -1.85582e-10 -1.85586e-10 -1.85594e-10 8.33433e-10 8.33429e-10 -1.85594e-10 -1.85582e-10 8.33429e-10 8.33444e-10 8.33432e-10 8.33433e-10 -2.21933e-09 -2.21933e-09 8.33433e-10 8.33433e-10 -2.21933e-09 -2.21933e-09 -2.21933e-09 -2.21933e-09 2.14144e-09 2.14144e-09 -2.21933e-09 -2.21933e-09 2.14144e-09 2.14144e-09 8.33433e-10 8.33429e-10 -2.21933e-09 -2.21933e-09 8.33429e-10 8.33444e-10 -2.21933e-09 -2.21933e-09 -2.21933e-09 -2.21933e-09 2.14144e-09 2.14144e-09 -2.21933e-09 -2.21933e-09 2.14144e-09 2.14143e-09 1.13595e-11 1.13614e-11 -1.85582e-10 -1.85531e-10 1.13614e-11 1.13588e-11 -1.85531e-10 -1.85763e-10 -1.85582e-10 -1.85531e-10 8.33444e-10 8.33428e-10 -1.85531e-10 -1.85763e-10 8.33428e-10 8.33374e-10 1.13588e-11 1.13545e-11 -1.85763e-10 -1.86066e-10 1.13545e-11 1.13838e-11 -1.86066e-10 -1.8252e-10 -1.85763e-10 -1.86066e-10 8.33374e-10 8.33698e-10 -1.86066e-10 -1.8252e-10 8.33698e-10 8.32025e-10 8.33444e-10 8.33428e-10 -2.21933e-09 -2.21931e-09 8.33428e-10 8.33374e-10 -2.21931e-09 -2.21934e-09 -2.21933e-09 -2.21931e-09 2.14143e-09 2.14144e-09 -2.21931e-09 -2.21934e-09 2.14144e-09 2.14147e-09 8.33374e-10 8.33698e-10 -2.21934e-09 -2.21948e-09 8.33698e-10 8.32025e-10 -2.21948e-09 -2.21895e-09 -2.21934e-09 -2.21948e-09 2.14147e-09 2.14145e-09 -2.21948e-09 -2.21895e-09 2.14145e-09 2.14134e-09 2.14144e-09 2.14144e-09 1.22139e-08 1.22139e-08 2.14144e-09 2.14144e-09 1.22139e-08 1.22139e-08 1.22139e-08 1.22139e-08 -7.24649e-08 -7.24649e-08 1.22139e-08 1.22139e-08 -7.24649e-08 -7.24649e-08 2.14144e-09 2.14144e-09 1.22139e-08 1.22139e-08 2.14144e-09 2.14143e-09 1.22139e-08 1.22139e-08 1.22139e-08 1.22139e-08 -7.24649e-08 -7.24649e-08 1.22139e-08 1.22139e-08 -7.24649e-08 -7.24649e-08 -7.24649e-08 -7.24649e-08 1.69802e-07 1.69802e-07 -7.24649e-08 -7.24649e-08 1.69802e-07 1.69802e-07 1.69802e-07 1.69802e-07 5.7771e-08 5.7771e-08 1.69802e-07 1.69802e-07 5.7771e-08 5.7771e-08 -7.24649e-08 -7.24649e-08 1.69802e-07 1.69802e-07 -7.24649e-08 -7.24649e-08 1.69802e-07 1.69802e-07 1.69802e-07 1.69802e-07 5.7771e-08 5.7771e-08 1.69802e-07 1.69802e-07 5.7771e-08 5.7771e-08 2.14143e-09 2.14144e-09 1.22139e-08 1.22139e-08 2.14144e-09 2.14147e-09 1.22139e-08 1.22139e-08 1.22139e-08 1.22139e-08 -7.24649e-08 -7.24649e-08 1.22139e-08 1.22139e-08 -7.24649e-08 -7.24649e-08 2.14147e-09 2.14145e-09 1.22139e-08 1.2214e-08 2.14145e-09 2.14134e-09 1.2214e-08 1.2214e-08 1.22139e-08 1.2214e-08 -7.24649e-08 -7.2465e-08 1.2214e-08 1.2214e-08 -7.2465e-08 -7.24649e-08 -7.24649e-08 -7.24649e-08 1.69802e-07 1.69802e-07 -7.24649e-08 -7.24649e-08 1.69802e-07 1.69802e-07 1.69802e-07 1.69802e-07 5.7771e-08 5.7771e-08 1.69802e-07 1.69802e-07 5.7771e-08 5.7771e-08 -7.24649e-08 -7.2465e-08 1.69802e-07 1.69802e-07 -7.2465e-08 -7.24649e-08 1.69802e-07 1.69802e-07 1.69802e-07 1.69802e-07 5.7771e-08 5.7771e-08 1.69802e-07 1.69802e-07 5.7771e-08 5.7771e-08 5.77775e-08 5.77762e-08 -1.64965e-06 -1.64965e-06 5.77762e-08 5.77738e-08 -1.64965e-06 -1.64963e-06 -1.64965e-06 -1.64965e-06 3.39159e-06 3.39165e-06 -1.64965e-06 -1.64963e-06 3.39165e-06 3.39177e-06 5.77738e-08 5.77725e-08 -1.64963e-06 -1.64961e-06 5.77725e-08 5.77717e-08 -1.64961e-06 -1.6496e-06 -1.64963e-06 -1.64961e-06 3.39177e-06 3.39189e-06 -1.64961e-06 -1.6496e-06 3.39189e-06 3.39198e-06 3.39159e-06 3.39165e-06 8.30454e-06 8.30472e-06 3.39165e-06 3.39177e-06 8.30472e-06 8.30515e-06 8.30454e-06 8.30472e-06 -2.91208e-05 -2.91202e-05 8.30472e-06 8.30515e-06 -2.91202e-05 -2.91192e-05 3.39177e-06 3.39189e-06 8.30515e-06 8.30558e-06 3.39189e-06 3.39198e-06 8.30558e-06 8.30585e-06 8.30515e-06 8.30558e-06 -2.91192e-05 -2.91183e-05 8.30558e-06 8.30585e-06 -2.91183e-05 -2.91177e-05 5.77717e-08 5.77709e-08 -1.6496e-06 -1.64959e-06 5.77709e-08 5.77708e-08 -1.64959e-06 -1.64958e-06 -1.6496e-06 -1.64959e-06 3.39198e-06 3.39202e-06 -1.64959e-06 -1.64958e-06 3.39202e-06 3.39204e-06 5.77708e-08 5.7771e-08 -1.64958e-06 -1.64958e-06 5.7771e-08 5.7771e-08 -1.64958e-06 -1.64958e-06 -1.64958e-06 -1.64958e-06 3.39204e-06 3.39204e-06 -1.64958e-06 -1.64958e-06 3.39204e-06 3.39204e-06 3.39198e-06 3.39202e-06 8.30585e-06 8.30598e-06 3.39202e-06 3.39204e-06 8.30598e-06 8.30603e-06 8.30585e-06 8.30598e-06 -2.91177e-05 -2.91174e-05 8.30598e-06 8.30603e-06 -2.91174e-05 -2.91173e-05 3.39204e-06 3.39204e-06 8.30603e-06 8.30604e-06 3.39204e-06 3.39204e-06 8.30604e-06 8.30604e-06 8.30603e-06 8.30604e-06 -2.91173e-05 -2.91173e-05 8.30604e-06 8.30604e-06 -2.91173e-05 -2.91173e-05 -2.91208e-05 -2.91202e-05 -0.00011548 -0.000115478 -2.91202e-05 -2.91192e-05 -0.000115478 -0.000115476 -0.00011548 -0.000115478 -0.000220424 -0.000220419 -0.000115478 -0.000115476 -0.000220419 -0.000220416 -2.91192e-05 -2.91183e-05 -0.000115476 -0.000115474 -2.91183e-05 -2.91177e-05 -0.000115474 -0.000115473 -0.000115476 -0.000115474 -0.000220416 -0.000220414 -0.000115474 -0.000115473 -0.000220414 -0.000220413 -0.000220424 -0.000220419 -0.000330119 -0.000330112 -0.000220419 -0.000220416 -0.000330112 -0.000330109 -0.000330119 -0.000330112 -0.00044 -0.00044 -0.000330112 -0.000330109 -0.00044 -0.00044 -0.000220416 -0.000220414 -0.000330109 -0.000330107 -0.000220414 -0.000220413 -0.000330107 -0.000330106 -0.000330109 -0.000330107 -0.00044 -0.00044 -0.000330107 -0.000330106 -0.00044 -0.00044 -2.91177e-05 -2.91174e-05 -0.000115473 -0.000115473 -2.91174e-05 -2.91173e-05 -0.000115473 -0.000115473 -0.000115473 -0.000115473 -0.000220413 -0.000220412 -0.000115473 -0.000115473 -0.000220412 -0.000220412 -2.91173e-05 -2.91173e-05 -0.000115473 -0.000115473 -2.91173e-05 -2.91173e-05 -0.000115473 -0.000115473 -0.000115473 -0.000115473 -0.000220412 -0.000220412 -0.000115473 -0.000115473 -0.000220412 -0.000220412 -0.000220413 -0.000220412 -0.000330106 -0.000330106 -0.000220412 -0.000220412 -0.000330106 -0.000330106 -0.000330106 -0.000330106 -0.00044 -0.00044 -0.000330106 -0.000330106 -0.00044 -0.00044 -0.000220412 -0.000220412 -0.000330106 -0.000330106 -0.000220412 -0.000220412 -0.000330106 -0.000330106 -0.000330106 -0.000330106 -0.00044 -0.00044 -0.000330106 -0.000330106 -0.00044 -0.00044 5.7771e-08 5.7771e-08 -1.64958e-06 -1.64958e-06 5.7771e-08 5.7771e-08 -1.64958e-06 -1.64958e-06 -1.64958e-06 -1.64958e-06 3.39204e-06 3.39204e-06 -1.64958e-06 -1.64958e-06 3.39204e-06 3.39204e-06 5.7771e-08 5.7771e-08 -1.64958e-06 -1.64958e-06 5.7771e-08 5.7771e-08 -1.64958e-06 -1.64958e-06 -1.64958e-06 -1.64958e-06 3.39204e-06 3.39204e-06 -1.64958e-06 -1.64958e-06 3.39204e-06 3.39204e-06 3.39204e-06 3.39204e-06 8.30604e-06 8.30604e-06 3.39204e-06 3.39204e-06 8.30604e-06 8.30604e-06 8.30604e-06 8.30604e-06 -2.91173e-05 -2.91173e-05 8.30604e-06 8.30604e-06 -2.91173e-05 -2.91173e-05 3.39204e-06 3.39204e-06 8.30604e-06 8.30604e-06 3.39204e-06 3.39204e-06 8.30604e-06 8.30604e-06 8.30604e-06 8.30604e-06 -2.91173e-05 -2.91173e-05 8.30604e-06 8.30604e-06 -2.91173e-05 -2.91173e-05 5.7771e-08 5.7771e-08 -1.64958e-06 -1.64958e-06 5.7771e-08 5.7771e-08 -1.64958e-06 -1.64958e-06 -1.64958e-06 -1.64958e-06 3.39204e-06 3.39204e-06 -1.64958e-06 -1.64958e-06 3.39204e-06 3.39204e-06 5.7771e-08 5.7771e-08 -1.64958e-06 -1.64958e-06 5.7771e-08 5.7771e-08 -1.64958e-06 -1.64958e-06 -1.64958e-06 -1.64958e-06 3.39204e-06 3.39204e-06 -1.64958e-06 -1.64958e-06 3.39204e-06 3.39204e-06 3.39204e-06 3.39204e-06 8.30604e-06 8.30604e-06 3.39204e-06 3.39204e-06 8.30604e-06 8.30604e-06 8.30604e-06 8.30604e-06 -2.91173e-05 -2.91173e-05 8.30604e-06 8.30604e-06 -2.91173e-05 -2.91173e-05 3.39204e-06 3.39204e-06 8.30604e-06 8.30604e-06 3.39204e-06 3.39204e-06 8.30604e-06 8.30604e-06 8.30604e-06 8.30604e-06 -2.91173e-05 -2.91173e-05 8.30604e-06 8.30604e-06 -2.91173e-05 -2.91173e-05 -2.91173e-05 -2.91173e-05 -0.000115473 -0.000115473 -2.91173e-05 -2.91173e-05 -0.000115473 -0.000115473 -0.000115473 -0.000115473 -0.000220412 -0.000220412 -0.000115473 -0.000115473 -0.000220412 -0.000220412 -2.91173e-05 -2.91173e-05 -0.000115473 -0.000115473 -2.91173e-05 -2.91173e-05 -0.000115473 -0.000115473 -0.000115473 -0.000115473 -0.000220412 -0.000220412 -0.000115473 -0.000115473 -0.000220412 -0.000220412 -0.000220412 -0.000220412 -0.000330106 -0.000330106 -0.000220412 -0.000220412 -0.000330106 -0.000330106 -0.000330106 -0.000330106 -0.00044 -0.00044 -0.000330106 -0.000330106 -0.00044 -0.00044 -0.000220412 -0.000220412 -0.000330106 -0.000330106 -0.000220412 -0.000220412 -0.000330106 -0.000330106 -0.000330106 -0.000330106 -0.00044 -0.00044 -0.000330106 -0.000330106 -0.00044 -0.00044 -2.91173e-05 -2.91173e-05 -0.000115473 -0.000115473 -2.91173e-05 -2.91173e-05 -0.000115473 -0.000115473 -0.000115473 -0.000115473 -0.000220412 -0.000220412 -0.000115473 -0.000115473 -0.000220412 -0.000220412 -2.91173e-05 -2.91173e-05 -0.000115473 -0.000115473 -2.91173e-05 -2.91173e-05 -0.000115473 -0.000115473 -0.000115473 -0.000115473 -0.000220412 -0.000220412 -0.000115473 -0.000115473 -0.000220412 -0.000220412 -0.000220412 -0.000220412 -0.000330106 -0.000330106 -0.000220412 -0.000220412 -0.000330106 -0.000330106 -0.000330106 -0.000330106 -0.00044 -0.00044 -0.000330106 -0.000330106 -0.00044 -0.00044 -0.000220412 -0.000220412 -0.000330106 -0.000330106 -0.000220412 -0.000220412 -0.000330106 -0.000330106 -0.000330106 -0.000330106 -0.00044 -0.00044 -0.000330106 -0.000330106 -0.00044 -0.00044 1.13838e-11 -6.02735e-13 -1.8252e-10 -1.70788e-10 -6.02735e-13 2.56817e-11 -1.70788e-10 -1.72642e-10 -1.8252e-10 -1.70788e-10 8.32025e-10 8.26594e-10 -1.70788e-10 -1.72642e-10 8.26594e-10 8.25929e-10 2.56817e-11 2.43955e-11 -1.72642e-10 -1.73777e-10 2.43955e-11 2.21306e-11 -1.73777e-10 -1.7404e-10 -1.72642e-10 -1.73777e-10 8.25929e-10 8.26574e-10 -1.73777e-10 -1.7404e-10 8.26574e-10 8.26577e-10 8.32025e-10 8.26594e-10 -2.21895e-09 -2.21718e-09 8.26594e-10 8.25929e-10 -2.21718e-09 -2.21661e-09 -2.21895e-09 -2.21718e-09 2.14134e-09 2.14102e-09 -2.21718e-09 -2.21661e-09 2.14102e-09 2.14078e-09 8.25929e-10 8.26574e-10 -2.21661e-09 -2.21686e-09 8.26574e-10 8.26577e-10 -2.21686e-09 -2.21697e-09 -2.21661e-09 -2.21686e-09 2.14078e-09 2.14076e-09 -2.21686e-09 -2.21697e-09 2.14076e-09 2.14085e-09 2.21306e-11 2.26908e-11 -1.7404e-10 -1.7382e-10 2.26908e-11 2.27804e-11 -1.7382e-10 -1.73812e-10 -1.7404e-10 -1.7382e-10 8.26577e-10 8.26471e-10 -1.7382e-10 -1.73812e-10 8.26471e-10 8.26515e-10 2.27804e-11 2.27078e-11 -1.73812e-10 -1.73845e-10 2.27078e-11 2.27174e-11 -1.73845e-10 -1.73836e-10 -1.73812e-10 -1.73845e-10 8.26515e-10 8.26513e-10 -1.73845e-10 -1.73836e-10 8.26513e-10 8.26508e-10 8.26577e-10 8.26471e-10 -2.21697e-09 -2.2169e-09 8.26471e-10 8.26515e-10 -2.2169e-09 -2.2169e-09 -2.21697e-09 -2.2169e-09 2.14085e-09 2.14084e-09 -2.2169e-09 -2.2169e-09 2.14084e-09 2.14083e-09 8.26515e-10 8.26513e-10 -2.2169e-09 -2.21691e-09 8.26513e-10 8.26508e-10 -2.21691e-09 -2.2169e-09 -2.2169e-09 -2.21691e-09 2.14083e-09 2.14083e-09 -2.21691e-09 -2.2169e-09 2.14083e-09 2.14083e-09 2.14134e-09 2.14102e-09 1.2214e-08 1.22139e-08 2.14102e-09 2.14078e-09 1.22139e-08 1.2214e-08 1.2214e-08 1.22139e-08 -7.24649e-08 -7.24649e-08 1.22139e-08 1.2214e-08 -7.24649e-08 -7.24649e-08 2.14078e-09 2.14076e-09 1.2214e-08 1.22141e-08 2.14076e-09 2.14085e-09 1.22141e-08 1.2214e-08 1.2214e-08 1.22141e-08 -7.24649e-08 -7.24649e-08 1.22141e-08 1.2214e-08 -7.24649e-08 -7.24649e-08 -7.24649e-08 -7.24649e-08 1.69802e-07 1.69802e-07 -7.24649e-08 -7.24649e-08 1.69802e-07 1.69802e-07 1.69802e-07 1.69802e-07 5.7771e-08 5.7771e-08 1.69802e-07 1.69802e-07 5.7771e-08 5.7771e-08 -7.24649e-08 -7.24649e-08 1.69802e-07 1.69802e-07 -7.24649e-08 -7.24649e-08 1.69802e-07 1.69802e-07 1.69802e-07 1.69802e-07 5.7771e-08 5.7771e-08 1.69802e-07 1.69802e-07 5.7771e-08 5.7771e-08 2.14085e-09 2.14084e-09 1.2214e-08 1.2214e-08 2.14084e-09 2.14083e-09 1.2214e-08 1.2214e-08 1.2214e-08 1.2214e-08 -7.24649e-08 -7.24649e-08 1.2214e-08 1.2214e-08 -7.24649e-08 -7.24649e-08 2.14083e-09 2.14083e-09 1.2214e-08 1.2214e-08 2.14083e-09 2.14083e-09 1.2214e-08 1.2214e-08 1.2214e-08 1.2214e-08 -7.24649e-08 -7.24649e-08 1.2214e-08 1.2214e-08 -7.24649e-08 -7.24649e-08 -7.24649e-08 -7.24649e-08 1.69802e-07 1.69802e-07 -7.24649e-08 -7.24649e-08 1.69802e-07 1.69802e-07 1.69802e-07 1.69802e-07 5.7771e-08 5.7771e-08 1.69802e-07 1.69802e-07 5.7771e-08 5.7771e-08 -7.24649e-08 -7.24649e-08 1.69802e-07 1.69802e-07 -7.24649e-08 -7.24649e-08 1.69802e-07 1.69802e-07 1.69802e-07 1.69802e-07 5.7771e-08 5.7771e-08 1.69802e-07 1.69802e-07 5.7771e-08 5.7771e-08 2.27174e-11 2.27217e-11 -1.73836e-10 -1.73835e-10 2.27217e-11 2.27196e-11 -1.73835e-10 -1.73837e-10 -1.73836e-10 -1.73835e-10 8.26508e-10 8.2651e-10 -1.73835e-10 -1.73837e-10 8.2651e-10 8.2651e-10 2.27196e-11 2.27198e-11 -1.73837e-10 -1.73836e-10 2.27198e-11 2.27198e-11 -1.73836e-10 -1.73836e-10 -1.73837e-10 -1.73836e-10 8.2651e-10 8.2651e-10 -1.73836e-10 -1.73836e-10 8.2651e-10 8.26509e-10 8.26508e-10 8.2651e-10 -2.2169e-09 -2.2169e-09 8.2651e-10 8.2651e-10 -2.2169e-09 -2.2169e-09 -2.2169e-09 -2.2169e-09 2.14083e-09 2.14083e-09 -2.2169e-09 -2.2169e-09 2.14083e-09 2.14083e-09 8.2651e-10 8.2651e-10 -2.2169e-09 -2.21691e-09 8.2651e-10 8.26509e-10 -2.21691e-09 -2.21691e-09 -2.2169e-09 -2.21691e-09 2.14083e-09 2.14083e-09 -2.21691e-09 -2.21691e-09 2.14083e-09 2.14084e-09 2.27198e-11 2.27196e-11 -1.73836e-10 -1.73836e-10 2.27196e-11 2.27195e-11 -1.73836e-10 -1.73836e-10 -1.73836e-10 -1.73836e-10 8.26509e-10 8.2651e-10 -1.73836e-10 -1.73836e-10 8.2651e-10 8.26512e-10 2.27195e-11 2.27193e-11 -1.73836e-10 -1.73836e-10 2.27193e-11 2.27192e-11 -1.73836e-10 -1.73836e-10 -1.73836e-10 -1.73836e-10 8.26512e-10 8.26514e-10 -1.73836e-10 -1.73836e-10 8.26514e-10 8.26515e-10 8.26509e-10 8.2651e-10 -2.21691e-09 -2.21691e-09 8.2651e-10 8.26512e-10 -2.21691e-09 -2.21691e-09 -2.21691e-09 -2.21691e-09 2.14084e-09 2.14082e-09 -2.21691e-09 -2.21691e-09 2.14082e-09 2.14081e-09 8.26512e-10 8.26514e-10 -2.21691e-09 -2.21692e-09 8.26514e-10 8.26515e-10 -2.21692e-09 -2.21692e-09 -2.21691e-09 -2.21692e-09 2.14081e-09 2.1408e-09 -2.21692e-09 -2.21692e-09 2.1408e-09 2.14079e-09 2.14083e-09 2.14083e-09 1.2214e-08 1.2214e-08 2.14083e-09 2.14083e-09 1.2214e-08 1.2214e-08 1.2214e-08 1.2214e-08 -7.24649e-08 -7.24649e-08 1.2214e-08 1.2214e-08 -7.24649e-08 -7.24649e-08 2.14083e-09 2.14083e-09 1.2214e-08 1.2214e-08 2.14083e-09 2.14084e-09 1.2214e-08 1.22141e-08 1.2214e-08 1.2214e-08 -7.24649e-08 -7.2465e-08 1.2214e-08 1.22141e-08 -7.2465e-08 -7.2465e-08 -7.24649e-08 -7.24649e-08 1.69802e-07 1.69802e-07 -7.24649e-08 -7.24649e-08 1.69802e-07 1.69802e-07 1.69802e-07 1.69802e-07 5.7771e-08 5.7771e-08 1.69802e-07 1.69802e-07 5.7771e-08 5.77712e-08 -7.24649e-08 -7.2465e-08 1.69802e-07 1.69802e-07 -7.2465e-08 -7.2465e-08 1.69802e-07 1.69801e-07 1.69802e-07 1.69802e-07 5.77712e-08 5.77711e-08 1.69802e-07 1.69801e-07 5.77711e-08 5.77703e-08 2.14084e-09 2.14082e-09 1.22141e-08 1.22141e-08 2.14082e-09 2.14081e-09 1.22141e-08 1.22142e-08 1.22141e-08 1.22141e-08 -7.2465e-08 -7.24649e-08 1.22141e-08 1.22142e-08 -7.24649e-08 -7.24649e-08 2.14081e-09 2.1408e-09 1.22142e-08 1.22143e-08 2.1408e-09 2.14079e-09 1.22143e-08 1.22144e-08 1.22142e-08 1.22143e-08 -7.24649e-08 -7.24649e-08 1.22143e-08 1.22144e-08 -7.24649e-08 -7.24648e-08 -7.2465e-08 -7.24649e-08 1.69801e-07 1.698e-07 -7.24649e-08 -7.24649e-08 1.698e-07 1.69798e-07 1.69801e-07 1.698e-07 5.77703e-08 5.77695e-08 1.698e-07 1.69798e-07 5.77695e-08 5.77682e-08 -7.24649e-08 -7.24649e-08 1.69798e-07 1.69797e-07 -7.24649e-08 -7.24648e-08 1.69797e-07 1.69797e-07 1.69798e-07 1.69797e-07 5.77682e-08 5.77658e-08 1.69797e-07 1.69797e-07 5.77658e-08 5.77645e-08 5.7771e-08 5.7771e-08 -1.64958e-06 -1.64958e-06 5.7771e-08 5.7771e-08 -1.64958e-06 -1.64958e-06 -1.64958e-06 -1.64958e-06 3.39204e-06 3.39204e-06 -1.64958e-06 -1.64958e-06 3.39204e-06 3.39204e-06 5.7771e-08 5.7771e-08 -1.64958e-06 -1.64958e-06 5.7771e-08 5.7771e-08 -1.64958e-06 -1.64958e-06 -1.64958e-06 -1.64958e-06 3.39204e-06 3.39204e-06 -1.64958e-06 -1.64958e-06 3.39204e-06 3.39204e-06 3.39204e-06 3.39204e-06 8.30604e-06 8.30604e-06 3.39204e-06 3.39204e-06 8.30604e-06 8.30604e-06 8.30604e-06 8.30604e-06 -2.91173e-05 -2.91173e-05 8.30604e-06 8.30604e-06 -2.91173e-05 -2.91173e-05 3.39204e-06 3.39204e-06 8.30604e-06 8.30604e-06 3.39204e-06 3.39204e-06 8.30604e-06 8.30604e-06 8.30604e-06 8.30604e-06 -2.91173e-05 -2.91173e-05 8.30604e-06 8.30604e-06 -2.91173e-05 -2.91173e-05 5.7771e-08 5.7771e-08 -1.64958e-06 -1.64958e-06 5.7771e-08 5.7771e-08 -1.64958e-06 -1.64958e-06 -1.64958e-06 -1.64958e-06 3.39204e-06 3.39204e-06 -1.64958e-06 -1.64958e-06 3.39204e-06 3.39204e-06 5.7771e-08 5.7771e-08 -1.64958e-06 -1.64958e-06 5.7771e-08 5.7771e-08 -1.64958e-06 -1.64958e-06 -1.64958e-06 -1.64958e-06 3