# vtk DataFile Version 3.0
#This file was generated by the deal.II library on 2022/11/16 at 21:15:42
ASCII
DATASET UNSTRUCTURED_GRID

POINTS 4096 double
0 0.5 0
0.03125 0.5 0
0 0.53125 0
0.03125 0.53125 0
0.03125 0.5 0
0.0625 0.5 0
0.03125 0.53125 0
0.0625 0.53125 0
0 0.53125 0
0.03125 0.53125 0
0 0.5625 0
0.03125 0.5625 0
0.03125 0.53125 0
0.0625 0.53125 0
0.03125 0.5625 0
0.0625 0.5625 0
0.0625 0.5 0
0.09375 0.5 0
0.0625 0.53125 0
0.09375 0.53125 0
0.09375 0.5 0
0.125 0.5 0
0.09375 0.53125 0
0.125 0.53125 0
0.0625 0.53125 0
0.09375 0.53125 0
0.0625 0.5625 0
0.09375 0.5625 0
0.09375 0.53125 0
0.125 0.53125 0
0.09375 0.5625 0
0.125 0.5625 0
0 0.5625 0
0.03125 0.5625 0
0 0.59375 0
0.03125 0.59375 0
0.03125 0.5625 0
0.0625 0.5625 0
0.03125 0.59375 0
0.0625 0.59375 0
0 0.59375 0
0.03125 0.59375 0
0 0.625 0
0.03125 0.625 0
0.03125 0.59375 0
0.0625 0.59375 0
0.03125 0.625 0
0.0625 0.625 0
0.0625 0.5625 0
0.09375 0.5625 0
0.0625 0.59375 0
0.09375 0.59375 0
0.09375 0.5625 0
0.125 0.5625 0
0.09375 0.59375 0
0.125 0.59375 0
0.0625 0.59375 0
0.09375 0.59375 0
0.0625 0.625 0
0.09375 0.625 0
0.09375 0.59375 0
0.125 0.59375 0
0.09375 0.625 0
0.125 0.625 0
0.125 0.5 0
0.15625 0.5 0
0.125 0.53125 0
0.15625 0.53125 0
0.15625 0.5 0
0.1875 0.5 0
0.15625 0.53125 0
0.1875 0.53125 0
0.125 0.53125 0
0.15625 0.53125 0
0.125 0.5625 0
0.15625 0.5625 0
0.15625 0.53125 0
0.1875 0.53125 0
0.15625 0.5625 0
0.1875 0.5625 0
0.1875 0.5 0
0.21875 0.5 0
0.1875 0.53125 0
0.21875 0.53125 0
0.21875 0.5 0
0.25 0.5 0
0.21875 0.53125 0
0.25 0.53125 0
0.1875 0.53125 0
0.21875 0.53125 0
0.1875 0.5625 0
0.21875 0.5625 0
0.21875 0.53125 0
0.25 0.53125 0
0.21875 0.5625 0
0.25 0.5625 0
0.125 0.5625 0
0.15625 0.5625 0
0.125 0.59375 0
0.15625 0.59375 0
0.15625 0.5625 0
0.1875 0.5625 0
0.15625 0.59375 0
0.1875 0.59375 0
0.125 0.59375 0
0.15625 0.59375 0
0.125 0.625 0
0.15625 0.625 0
0.15625 0.59375 0
0.1875 0.59375 0
0.15625 0.625 0
0.1875 0.625 0
0.1875 0.5625 0
0.21875 0.5625 0
0.1875 0.59375 0
0.21875 0.59375 0
0.21875 0.5625 0
0.25 0.5625 0
0.21875 0.59375 0
0.25 0.59375 0
0.1875 0.59375 0
0.21875 0.59375 0
0.1875 0.625 0
0.21875 0.625 0
0.21875 0.59375 0
0.25 0.59375 0
0.21875 0.625 0
0.25 0.625 0
0 0.625 0
0.03125 0.625 0
0 0.65625 0
0.03125 0.65625 0
0.03125 0.625 0
0.0625 0.625 0
0.03125 0.65625 0
0.0625 0.65625 0
0 0.65625 0
0.03125 0.65625 0
0 0.6875 0
0.03125 0.6875 0
0.03125 0.65625 0
0.0625 0.65625 0
0.03125 0.6875 0
0.0625 0.6875 0
0.0625 0.625 0
0.09375 0.625 0
0.0625 0.65625 0
0.09375 0.65625 0
0.09375 0.625 0
0.125 0.625 0
0.09375 0.65625 0
0.125 0.65625 0
0.0625 0.65625 0
0.09375 0.65625 0
0.0625 0.6875 0
0.09375 0.6875 0
0.09375 0.65625 0
0.125 0.65625 0
0.09375 0.6875 0
0.125 0.6875 0
0 0.6875 0
0.03125 0.6875 0
0 0.71875 0
0.03125 0.71875 0
0.03125 0.6875 0
0.0625 0.6875 0
0.03125 0.71875 0
0.0625 0.71875 0
0 0.71875 0
0.03125 0.71875 0
0 0.75 0
0.03125 0.75 0
0.03125 0.71875 0
0.0625 0.71875 0
0.03125 0.75 0
0.0625 0.75 0
0.0625 0.6875 0
0.09375 0.6875 0
0.0625 0.71875 0
0.09375 0.71875 0
0.09375 0.6875 0
0.125 0.6875 0
0.09375 0.71875 0
0.125 0.71875 0
0.0625 0.71875 0
0.09375 0.71875 0
0.0625 0.75 0
0.09375 0.75 0
0.09375 0.71875 0
0.125 0.71875 0
0.09375 0.75 0
0.125 0.75 0
0.125 0.625 0
0.15625 0.625 0
0.125 0.65625 0
0.15625 0.65625 0
0.15625 0.625 0
0.1875 0.625 0
0.15625 0.65625 0
0.1875 0.65625 0
0.125 0.65625 0
0.15625 0.65625 0
0.125 0.6875 0
0.15625 0.6875 0
0.15625 0.65625 0
0.1875 0.65625 0
0.15625 0.6875 0
0.1875 0.6875 0
0.1875 0.625 0
0.21875 0.625 0
0.1875 0.65625 0
0.21875 0.65625 0
0.21875 0.625 0
0.25 0.625 0
0.21875 0.65625 0
0.25 0.65625 0
0.1875 0.65625 0
0.21875 0.65625 0
0.1875 0.6875 0
0.21875 0.6875 0
0.21875 0.65625 0
0.25 0.65625 0
0.21875 0.6875 0
0.25 0.6875 0
0.125 0.6875 0
0.15625 0.6875 0
0.125 0.71875 0
0.15625 0.71875 0
0.15625 0.6875 0
0.1875 0.6875 0
0.15625 0.71875 0
0.1875 0.71875 0
0.125 0.71875 0
0.15625 0.71875 0
0.125 0.75 0
0.15625 0.75 0
0.15625 0.71875 0
0.1875 0.71875 0
0.15625 0.75 0
0.1875 0.75 0
0.1875 0.6875 0
0.21875 0.6875 0
0.1875 0.71875 0
0.21875 0.71875 0
0.21875 0.6875 0
0.25 0.6875 0
0.21875 0.71875 0
0.25 0.71875 0
0.1875 0.71875 0
0.21875 0.71875 0
0.1875 0.75 0
0.21875 0.75 0
0.21875 0.71875 0
0.25 0.71875 0
0.21875 0.75 0
0.25 0.75 0
0.25 0.5 0
0.28125 0.5 0
0.25 0.53125 0
0.28125 0.53125 0
0.28125 0.5 0
0.3125 0.5 0
0.28125 0.53125 0
0.3125 0.53125 0
0.25 0.53125 0
0.28125 0.53125 0
0.25 0.5625 0
0.28125 0.5625 0
0.28125 0.53125 0
0.3125 0.53125 0
0.28125 0.5625 0
0.3125 0.5625 0
0.3125 0.5 0
0.34375 0.5 0
0.3125 0.53125 0
0.34375 0.53125 0
0.34375 0.5 0
0.375 0.5 0
0.34375 0.53125 0
0.375 0.53125 0
0.3125 0.53125 0
0.34375 0.53125 0
0.3125 0.5625 0
0.34375 0.5625 0
0.34375 0.53125 0
0.375 0.53125 0
0.34375 0.5625 0
0.375 0.5625 0
0.25 0.5625 0
0.28125 0.5625 0
0.25 0.59375 0
0.28125 0.59375 0
0.28125 0.5625 0
0.3125 0.5625 0
0.28125 0.59375 0
0.3125 0.59375 0
0.25 0.59375 0
0.28125 0.59375 0
0.25 0.625 0
0.28125 0.625 0
0.28125 0.59375 0
0.3125 0.59375 0
0.28125 0.625 0
0.3125 0.625 0
0.3125 0.5625 0
0.34375 0.5625 0
0.3125 0.59375 0
0.34375 0.59375 0
0.34375 0.5625 0
0.375 0.5625 0
0.34375 0.59375 0
0.375 0.59375 0
0.3125 0.59375 0
0.34375 0.59375 0
0.3125 0.625 0
0.34375 0.625 0
0.34375 0.59375 0
0.375 0.59375 0
0.34375 0.625 0
0.375 0.625 0
0.375 0.5 0
0.40625 0.5 0
0.375 0.53125 0
0.40625 0.53125 0
0.40625 0.5 0
0.4375 0.5 0
0.40625 0.53125 0
0.4375 0.53125 0
0.375 0.53125 0
0.40625 0.53125 0
0.375 0.5625 0
0.40625 0.5625 0
0.40625 0.53125 0
0.4375 0.53125 0
0.40625 0.5625 0
0.4375 0.5625 0
0.4375 0.5 0
0.46875 0.5 0
0.4375 0.53125 0
0.46875 0.53125 0
0.46875 0.5 0
0.5 0.5 0
0.46875 0.53125 0
0.5 0.53125 0
0.4375 0.53125 0
0.46875 0.53125 0
0.4375 0.5625 0
0.46875 0.5625 0
0.46875 0.53125 0
0.5 0.53125 0
0.46875 0.5625 0
0.5 0.5625 0
0.375 0.5625 0
0.40625 0.5625 0
0.375 0.59375 0
0.40625 0.59375 0
0.40625 0.5625 0
0.4375 0.5625 0
0.40625 0.59375 0
0.4375 0.59375 0
0.375 0.59375 0
0.40625 0.59375 0
0.375 0.625 0
0.40625 0.625 0
0.40625 0.59375 0
0.4375 0.59375 0
0.40625 0.625 0
0.4375 0.625 0
0.4375 0.5625 0
0.46875 0.5625 0
0.4375 0.59375 0
0.46875 0.59375 0
0.46875 0.5625 0
0.5 0.5625 0
0.46875 0.59375 0
0.5 0.59375 0
0.4375 0.59375 0
0.46875 0.59375 0
0.4375 0.625 0
0.46875 0.625 0
0.46875 0.59375 0
0.5 0.59375 0
0.46875 0.625 0
0.5 0.625 0
0.25 0.625 0
0.28125 0.625 0
0.25 0.65625 0
0.28125 0.65625 0
0.28125 0.625 0
0.3125 0.625 0
0.28125 0.65625 0
0.3125 0.65625 0
0.25 0.65625 0
0.28125 0.65625 0
0.25 0.6875 0
0.28125 0.6875 0
0.28125 0.65625 0
0.3125 0.65625 0
0.28125 0.6875 0
0.3125 0.6875 0
0.3125 0.625 0
0.34375 0.625 0
0.3125 0.65625 0
0.34375 0.65625 0
0.34375 0.625 0
0.375 0.625 0
0.34375 0.65625 0
0.375 0.65625 0
0.3125 0.65625 0
0.34375 0.65625 0
0.3125 0.6875 0
0.34375 0.6875 0
0.34375 0.65625 0
0.375 0.65625 0
0.34375 0.6875 0
0.375 0.6875 0
0.25 0.6875 0
0.28125 0.6875 0
0.25 0.71875 0
0.28125 0.71875 0
0.28125 0.6875 0
0.3125 0.6875 0
0.28125 0.71875 0
0.3125 0.71875 0
0.25 0.71875 0
0.28125 0.71875 0
0.25 0.75 0
0.28125 0.75 0
0.28125 0.71875 0
0.3125 0.71875 0
0.28125 0.75 0
0.3125 0.75 0
0.3125 0.6875 0
0.34375 0.6875 0
0.3125 0.71875 0
0.34375 0.71875 0
0.34375 0.6875 0
0.375 0.6875 0
0.34375 0.71875 0
0.375 0.71875 0
0.3125 0.71875 0
0.34375 0.71875 0
0.3125 0.75 0
0.34375 0.75 0
0.34375 0.71875 0
0.375 0.71875 0
0.34375 0.75 0
0.375 0.75 0
0.375 0.625 0
0.40625 0.625 0
0.375 0.65625 0
0.40625 0.65625 0
0.40625 0.625 0
0.4375 0.625 0
0.40625 0.65625 0
0.4375 0.65625 0
0.375 0.65625 0
0.40625 0.65625 0
0.375 0.6875 0
0.40625 0.6875 0
0.40625 0.65625 0
0.4375 0.65625 0
0.40625 0.6875 0
0.4375 0.6875 0
0.4375 0.625 0
0.46875 0.625 0
0.4375 0.65625 0
0.46875 0.65625 0
0.46875 0.625 0
0.5 0.625 0
0.46875 0.65625 0
0.5 0.65625 0
0.4375 0.65625 0
0.46875 0.65625 0
0.4375 0.6875 0
0.46875 0.6875 0
0.46875 0.65625 0
0.5 0.65625 0
0.46875 0.6875 0
0.5 0.6875 0
0.375 0.6875 0
0.40625 0.6875 0
0.375 0.71875 0
0.40625 0.71875 0
0.40625 0.6875 0
0.4375 0.6875 0
0.40625 0.71875 0
0.4375 0.71875 0
0.375 0.71875 0
0.40625 0.71875 0
0.375 0.75 0
0.40625 0.75 0
0.40625 0.71875 0
0.4375 0.71875 0
0.40625 0.75 0
0.4375 0.75 0
0.4375 0.6875 0
0.46875 0.6875 0
0.4375 0.71875 0
0.46875 0.71875 0
0.46875 0.6875 0
0.5 0.6875 0
0.46875 0.71875 0
0.5 0.71875 0
0.4375 0.71875 0
0.46875 0.71875 0
0.4375 0.75 0
0.46875 0.75 0
0.46875 0.71875 0
0.5 0.71875 0
0.46875 0.75 0
0.5 0.75 0
0 0.75 0
0.03125 0.75 0
0 0.78125 0
0.03125 0.78125 0
0.03125 0.75 0
0.0625 0.75 0
0.03125 0.78125 0
0.0625 0.78125 0
0 0.78125 0
0.03125 0.78125 0
0 0.8125 0
0.03125 0.8125 0
0.03125 0.78125 0
0.0625 0.78125 0
0.03125 0.8125 0
0.0625 0.8125 0
0.0625 0.75 0
0.09375 0.75 0
0.0625 0.78125 0
0.09375 0.78125 0
0.09375 0.75 0
0.125 0.75 0
0.09375 0.78125 0
0.125 0.78125 0
0.0625 0.78125 0
0.09375 0.78125 0
0.0625 0.8125 0
0.09375 0.8125 0
0.09375 0.78125 0
0.125 0.78125 0
0.09375 0.8125 0
0.125 0.8125 0
0 0.8125 0
0.03125 0.8125 0
0 0.84375 0
0.03125 0.84375 0
0.03125 0.8125 0
0.0625 0.8125 0
0.03125 0.84375 0
0.0625 0.84375 0
0 0.84375 0
0.03125 0.84375 0
0 0.875 0
0.03125 0.875 0
0.03125 0.84375 0
0.0625 0.84375 0
0.03125 0.875 0
0.0625 0.875 0
0.0625 0.8125 0
0.09375 0.8125 0
0.0625 0.84375 0
0.09375 0.84375 0
0.09375 0.8125 0
0.125 0.8125 0
0.09375 0.84375 0
0.125 0.84375 0
0.0625 0.84375 0
0.09375 0.84375 0
0.0625 0.875 0
0.09375 0.875 0
0.09375 0.84375 0
0.125 0.84375 0
0.09375 0.875 0
0.125 0.875 0
0.125 0.75 0
0.15625 0.75 0
0.125 0.78125 0
0.15625 0.78125 0
0.15625 0.75 0
0.1875 0.75 0
0.15625 0.78125 0
0.1875 0.78125 0
0.125 0.78125 0
0.15625 0.78125 0
0.125 0.8125 0
0.15625 0.8125 0
0.15625 0.78125 0
0.1875 0.78125 0
0.15625 0.8125 0
0.1875 0.8125 0
0.1875 0.75 0
0.21875 0.75 0
0.1875 0.78125 0
0.21875 0.78125 0
0.21875 0.75 0
0.25 0.75 0
0.21875 0.78125 0
0.25 0.78125 0
0.1875 0.78125 0
0.21875 0.78125 0
0.1875 0.8125 0
0.21875 0.8125 0
0.21875 0.78125 0
0.25 0.78125 0
0.21875 0.8125 0
0.25 0.8125 0
0.125 0.8125 0
0.15625 0.8125 0
0.125 0.84375 0
0.15625 0.84375 0
0.15625 0.8125 0
[...]
POINT_DATA 4096
SCALARS x_dis double 1
LOOKUP_TABLE default
8.59473e-14 8.59473e-14 -4.01012e-13 -4.01012e-13 8.59473e-14 8.59473e-14 -4.01012e-13 -4.01012e-13 -4.01012e-13 -4.01012e-13 1.66496e-12 1.66496e-12 -4.01012e-13 -4.01012e-13 1.66496e-12 1.66496e-12 8.59473e-14 8.59473e-14 -4.01012e-13 -4.01012e-13 8.59473e-14 8.59473e-14 -4.01012e-13 -4.01012e-13 -4.01012e-13 -4.01012e-13 1.66496e-12 1.66496e-12 -4.01012e-13 -4.01012e-13 1.66496e-12 1.66496e-12 1.66496e-12 1.66496e-12 -6.23838e-12 -6.23838e-12 1.66496e-12 1.66496e-12 -6.23838e-12 -6.23838e-12 -6.23838e-12 -6.23838e-12 2.08682e-11 2.08682e-11 -6.23838e-12 -6.23838e-12 2.08682e-11 2.08682e-11 1.66496e-12 1.66496e-12 -6.23838e-12 -6.23838e-12 1.66496e-12 1.66496e-12 -6.23838e-12 -6.23838e-12 -6.23838e-12 -6.23838e-12 2.08682e-11 2.08682e-11 -6.23838e-12 -6.23838e-12 2.08682e-11 2.08682e-11 8.59473e-14 8.59473e-14 -4.01012e-13 -4.01012e-13 8.59473e-14 8.59473e-14 -4.01012e-13 -4.01012e-13 -4.01012e-13 -4.01012e-13 1.66496e-12 1.66496e-12 -4.01012e-13 -4.01012e-13 1.66496e-12 1.66496e-12 8.59473e-14 8.59473e-14 -4.01012e-13 -4.01012e-13 8.59473e-14 8.59473e-14 -4.01012e-13 -4.01012e-13 -4.01012e-13 -4.01012e-13 1.66496e-12 1.66496e-12 -4.01012e-13 -4.01012e-13 1.66496e-12 1.66496e-12 1.66496e-12 1.66496e-12 -6.23838e-12 -6.23838e-12 1.66496e-12 1.66496e-12 -6.23838e-12 -6.23838e-12 -6.23838e-12 -6.23838e-12 2.08682e-11 2.08682e-11 -6.23838e-12 -6.23838e-12 2.08682e-11 2.08682e-11 1.66496e-12 1.66496e-12 -6.23838e-12 -6.23838e-12 1.66496e-12 1.66496e-12 -6.23838e-12 -6.23838e-12 -6.23838e-12 -6.23838e-12 2.08682e-11 2.08682e-11 -6.23838e-12 -6.23838e-12 2.08682e-11 2.08682e-11 2.08682e-11 2.08682e-11 -5.95511e-11 -5.95511e-11 2.08682e-11 2.08682e-11 -5.95511e-11 -5.95511e-11 -5.95511e-11 -5.95511e-11 1.24002e-10 1.24002e-10 -5.95511e-11 -5.95511e-11 1.24002e-10 1.24002e-10 2.08682e-11 2.08682e-11 -5.95511e-11 -5.95511e-11 2.08682e-11 2.08682e-11 -5.95511e-11 -5.95511e-11 -5.95511e-11 -5.95511e-11 1.24002e-10 1.24002e-10 -5.95511e-11 -5.95511e-11 1.24002e-10 1.24002e-10 1.24002e-10 1.24002e-10 -2.50549e-11 -2.50545e-11 1.24002e-10 1.24002e-10 -2.50545e-11 -2.50547e-11 -2.50549e-11 -2.50545e-11 -1.56745e-09 -1.56745e-09 -2.50545e-11 -2.50547e-11 -1.56745e-09 -1.56745e-09 1.24002e-10 1.24002e-10 -2.50547e-11 -2.50545e-11 1.24002e-10 1.24002e-10 -2.50545e-11 -2.50548e-11 -2.50547e-11 -2.50545e-11 -1.56745e-09 -1.56745e-09 -2.50545e-11 -2.50548e-11 -1.56745e-09 -1.56745e-09 2.08682e-11 2.08682e-11 -5.95511e-11 -5.95511e-11 2.08682e-11 2.08682e-11 -5.95511e-11 -5.95511e-11 -5.95511e-11 -5.95511e-11 1.24002e-10 1.24002e-10 -5.95511e-11 -5.95511e-11 1.24002e-10 1.24002e-10 2.08682e-11 2.08682e-11 -5.95511e-11 -5.95511e-11 2.08682e-11 2.08682e-11 -5.95511e-11 -5.95511e-11 -5.95511e-11 -5.95511e-11 1.24002e-10 1.24002e-10 -5.95511e-11 -5.95511e-11 1.24002e-10 1.24002e-10 1.24002e-10 1.24002e-10 -2.50548e-11 -2.50546e-11 1.24002e-10 1.24002e-10 -2.50546e-11 -2.50547e-11 -2.50548e-11 -2.50546e-11 -1.56745e-09 -1.56745e-09 -2.50546e-11 -2.50547e-11 -1.56745e-09 -1.56745e-09 1.24002e-10 1.24002e-10 -2.50547e-11 -2.50547e-11 1.24002e-10 1.24002e-10 -2.50547e-11 -2.50547e-11 -2.50547e-11 -2.50547e-11 -1.56745e-09 -1.56745e-09 -2.50547e-11 -2.50547e-11 -1.56745e-09 -1.56745e-09 8.59473e-14 8.59473e-14 -4.01012e-13 -4.01012e-13 8.59473e-14 8.59473e-14 -4.01012e-13 -4.01012e-13 -4.01012e-13 -4.01012e-13 1.66496e-12 1.66496e-12 -4.01012e-13 -4.01012e-13 1.66496e-12 1.66496e-12 8.59473e-14 8.59473e-14 -4.01012e-13 -4.01011e-13 8.59473e-14 8.59474e-14 -4.01011e-13 -4.01013e-13 -4.01012e-13 -4.01011e-13 1.66496e-12 1.66496e-12 -4.01011e-13 -4.01013e-13 1.66496e-12 1.66495e-12 1.66496e-12 1.66496e-12 -6.23838e-12 -6.23838e-12 1.66496e-12 1.66496e-12 -6.23838e-12 -6.23838e-12 -6.23838e-12 -6.23838e-12 2.08682e-11 2.08682e-11 -6.23838e-12 -6.23838e-12 2.08682e-11 2.08682e-11 1.66496e-12 1.66496e-12 -6.23838e-12 -6.23838e-12 1.66496e-12 1.66495e-12 -6.23838e-12 -6.23837e-12 -6.23838e-12 -6.23838e-12 2.08682e-11 2.08682e-11 -6.23838e-12 -6.23837e-12 2.08682e-11 2.08682e-11 8.59474e-14 8.59472e-14 -4.01013e-13 -4.01019e-13 8.59472e-14 8.59474e-14 -4.01019e-13 -4.00948e-13 -4.01013e-13 -4.01019e-13 1.66495e-12 1.66498e-12 -4.01019e-13 -4.00948e-13 1.66498e-12 1.66489e-12 8.59474e-14 8.59486e-14 -4.00948e-13 -4.0129e-13 8.59486e-14 8.59377e-14 -4.0129e-13 -4.00631e-13 -4.00948e-13 -4.0129e-13 1.66489e-12 1.66511e-12 -4.0129e-13 -4.00631e-13 1.66511e-12 1.66465e-12 1.66495e-12 1.66498e-12 -6.23837e-12 -6.23839e-12 1.66498e-12 1.66489e-12 -6.23839e-12 -6.23833e-12 -6.23837e-12 -6.23839e-12 2.08682e-11 2.08683e-11 -6.23839e-12 -6.23833e-12 2.08683e-11 2.08682e-11 1.66489e-12 1.66511e-12 -6.23833e-12 -6.23847e-12 1.66511e-12 1.66465e-12 -6.23847e-12 -6.23827e-12 -6.23833e-12 -6.23847e-12 2.08682e-11 2.08683e-11 -6.23847e-12 -6.23827e-12 2.08683e-11 2.08682e-11 2.08682e-11 2.08682e-11 -5.95511e-11 -5.95511e-11 2.08682e-11 2.08682e-11 -5.95511e-11 -5.95511e-11 -5.95511e-11 -5.95511e-11 1.24002e-10 1.24002e-10 -5.95511e-11 -5.95511e-11 1.24002e-10 1.24002e-10 2.08682e-11 2.08682e-11 -5.95511e-11 -5.95511e-11 2.08682e-11 2.08682e-11 -5.95511e-11 -5.95511e-11 -5.95511e-11 -5.95511e-11 1.24002e-10 1.24002e-10 -5.95511e-11 -5.95511e-11 1.24002e-10 1.24002e-10 1.24002e-10 1.24002e-10 -2.50547e-11 -2.50547e-11 1.24002e-10 1.24002e-10 -2.50547e-11 -2.50547e-11 -2.50547e-11 -2.50547e-11 -1.56745e-09 -1.56745e-09 -2.50547e-11 -2.50547e-11 -1.56745e-09 -1.56745e-09 1.24002e-10 1.24002e-10 -2.50547e-11 -2.50547e-11 1.24002e-10 1.24002e-10 -2.50547e-11 -2.50547e-11 -2.50547e-11 -2.50547e-11 -1.56745e-09 -1.56745e-09 -2.50547e-11 -2.50547e-11 -1.56745e-09 -1.56745e-09 2.08682e-11 2.08683e-11 -5.95511e-11 -5.95511e-11 2.08683e-11 2.08682e-11 -5.95511e-11 -5.95511e-11 -5.95511e-11 -5.95511e-11 1.24002e-10 1.24002e-10 -5.95511e-11 -5.95511e-11 1.24002e-10 1.24002e-10 2.08682e-11 2.08683e-11 -5.95511e-11 -5.95511e-11 2.08683e-11 2.08682e-11 -5.95511e-11 -5.95511e-11 -5.95511e-11 -5.95511e-11 1.24002e-10 1.24002e-10 -5.95511e-11 -5.95511e-11 1.24002e-10 1.24002e-10 1.24002e-10 1.24002e-10 -2.50547e-11 -2.50547e-11 1.24002e-10 1.24002e-10 -2.50547e-11 -2.50547e-11 -2.50547e-11 -2.50547e-11 -1.56745e-09 -1.56745e-09 -2.50547e-11 -2.50547e-11 -1.56745e-09 -1.56745e-09 1.24002e-10 1.24002e-10 -2.50547e-11 -2.50547e-11 1.24002e-10 1.24002e-10 -2.50547e-11 -2.50547e-11 -2.50547e-11 -2.50547e-11 -1.56745e-09 -1.56745e-09 -2.50547e-11 -2.50547e-11 -1.56745e-09 -1.56745e-09 -1.56745e-09 -1.56745e-09 1.09683e-08 1.09683e-08 -1.56745e-09 -1.56745e-09 1.09683e-08 1.09683e-08 1.09683e-08 1.09683e-08 -5.09629e-08 -5.0963e-08 1.09683e-08 1.09683e-08 -5.0963e-08 -5.09629e-08 -1.56745e-09 -1.56745e-09 1.09683e-08 1.09683e-08 -1.56745e-09 -1.56745e-09 1.09683e-08 1.09683e-08 1.09683e-08 1.09683e-08 -5.09629e-08 -5.0963e-08 1.09683e-08 1.09683e-08 -5.0963e-08 -5.09629e-08 -5.09629e-08 -5.0963e-08 1.76419e-07 1.76419e-07 -5.0963e-08 -5.09629e-08 1.76419e-07 1.76419e-07 1.76419e-07 1.76419e-07 -3.82678e-07 -3.82679e-07 1.76419e-07 1.76419e-07 -3.82679e-07 -3.82677e-07 -5.09629e-08 -5.0963e-08 1.76419e-07 1.76419e-07 -5.0963e-08 -5.09629e-08 1.76419e-07 1.76419e-07 1.76419e-07 1.76419e-07 -3.82677e-07 -3.82678e-07 1.76419e-07 1.76419e-07 -3.82678e-07 -3.82678e-07 -1.56745e-09 -1.56745e-09 1.09683e-08 1.09683e-08 -1.56745e-09 -1.56745e-09 1.09683e-08 1.09683e-08 1.09683e-08 1.09683e-08 -5.09629e-08 -5.0963e-08 1.09683e-08 1.09683e-08 -5.0963e-08 -5.0963e-08 -1.56745e-09 -1.56745e-09 1.09683e-08 1.09683e-08 -1.56745e-09 -1.56745e-09 1.09683e-08 1.09683e-08 1.09683e-08 1.09683e-08 -5.0963e-08 -5.0963e-08 1.09683e-08 1.09683e-08 -5.0963e-08 -5.0963e-08 -5.09629e-08 -5.0963e-08 1.76419e-07 1.76419e-07 -5.0963e-08 -5.0963e-08 1.76419e-07 1.76419e-07 1.76419e-07 1.76419e-07 -3.82678e-07 -3.82678e-07 1.76419e-07 1.76419e-07 -3.82678e-07 -3.82678e-07 -5.0963e-08 -5.0963e-08 1.76419e-07 1.76419e-07 -5.0963e-08 -5.0963e-08 1.76419e-07 1.76419e-07 1.76419e-07 1.76419e-07 -3.82678e-07 -3.82678e-07 1.76419e-07 1.76419e-07 -3.82678e-07 -3.82678e-07 -3.82678e-07 -3.82679e-07 -2.82969e-07 -2.82963e-07 -3.82679e-07 -3.82677e-07 -2.82963e-07 -2.82972e-07 -2.82969e-07 -2.82963e-07 7.42274e-06 7.4227e-06 -2.82963e-07 -2.82972e-07 7.4227e-06 7.42274e-06 -3.82677e-07 -3.82678e-07 -2.82972e-07 -2.82969e-07 -3.82678e-07 -3.82678e-07 -2.82969e-07 -2.82969e-07 -2.82972e-07 -2.82969e-07 7.42274e-06 7.42273e-06 -2.82969e-07 -2.82969e-07 7.42273e-06 7.42273e-06 7.42274e-06 7.4227e-06 -2.90726e-05 -2.90721e-05 7.4227e-06 7.42274e-06 -2.90721e-05 -2.90721e-05 -2.90726e-05 -2.90721e-05 -0.00013 -0.00013 -2.90721e-05 -2.90721e-05 -0.00013 -0.00013 7.42274e-06 7.42273e-06 -2.90721e-05 -2.90721e-05 7.42273e-06 7.42273e-06 -2.90721e-05 -2.90721e-05 -2.90721e-05 -2.90721e-05 -0.00013 -0.00013 -2.90721e-05 -2.90721e-05 -0.00013 -0.00013 -3.82678e-07 -3.82678e-07 -2.82969e-07 -2.82969e-07 -3.82678e-07 -3.82678e-07 -2.82969e-07 -2.82969e-07 -2.82969e-07 -2.82969e-07 7.42273e-06 7.42273e-06 -2.82969e-07 -2.82969e-07 7.42273e-06 7.42273e-06 -3.82678e-07 -3.82678e-07 -2.82969e-07 -2.82969e-07 -3.82678e-07 -3.82678e-07 -2.82969e-07 -2.82969e-07 -2.82969e-07 -2.82969e-07 7.42273e-06 7.42273e-06 -2.82969e-07 -2.82969e-07 7.42273e-06 7.42273e-06 7.42273e-06 7.42273e-06 -2.90721e-05 -2.90721e-05 7.42273e-06 7.42273e-06 -2.90721e-05 -2.90721e-05 -2.90721e-05 -2.90721e-05 -0.00013 -0.00013 -2.90721e-05 -2.90721e-05 -0.00013 -0.00013 7.42273e-06 7.42273e-06 -2.90721e-05 -2.90721e-05 7.42273e-06 7.42273e-06 -2.90721e-05 -2.90721e-05 -2.90721e-05 -2.90721e-05 -0.00013 -0.00013 -2.90721e-05 -2.90721e-05 -0.00013 -0.00013 -1.56745e-09 -1.56745e-09 1.09683e-08 1.09683e-08 -1.56745e-09 -1.56745e-09 1.09683e-08 1.09683e-08 1.09683e-08 1.09683e-08 -5.0963e-08 -5.0963e-08 1.09683e-08 1.09683e-08 -5.0963e-08 -5.0963e-08 -1.56745e-09 -1.56745e-09 1.09683e-08 1.09683e-08 -1.56745e-09 -1.56745e-09 1.09683e-08 1.09683e-08 1.09683e-08 1.09683e-08 -5.0963e-08 -5.0963e-08 1.09683e-08 1.09683e-08 -5.0963e-08 -5.0963e-08 -5.0963e-08 -5.0963e-08 1.76419e-07 1.76419e-07 -5.0963e-08 -5.0963e-08 1.76419e-07 1.76419e-07 1.76419e-07 1.76419e-07 -3.82678e-07 -3.82678e-07 1.76419e-07 1.76419e-07 -3.82678e-07 -3.82678e-07 -5.0963e-08 -5.0963e-08 1.76419e-07 1.76419e-07 -5.0963e-08 -5.0963e-08 1.76419e-07 1.76419e-07 1.76419e-07 1.76419e-07 -3.82678e-07 -3.82678e-07 1.76419e-07 1.76419e-07 -3.82678e-07 -3.82678e-07 -1.56745e-09 -1.56745e-09 1.09683e-08 1.09683e-08 -1.56745e-09 -1.56745e-09 1.09683e-08 1.09683e-08 1.09683e-08 1.09683e-08 -5.0963e-08 -5.0963e-08 1.09683e-08 1.09683e-08 -5.0963e-08 -5.0963e-08 -1.56745e-09 -1.56745e-09 1.09683e-08 1.09683e-08 -1.56745e-09 -1.56745e-09 1.09683e-08 1.09683e-08 1.09683e-08 1.09683e-08 -5.0963e-08 -5.0963e-08 1.09683e-08 1.09683e-08 -5.0963e-08 -5.0963e-08 -5.0963e-08 -5.0963e-08 1.76419e-07 1.76419e-07 -5.0963e-08 -5.0963e-08 1.76419e-07 1.76419e-07 1.76419e-07 1.76419e-07 -3.82678e-07 -3.82678e-07 1.76419e-07 1.76419e-07 -3.82678e-07 -3.82678e-07 -5.0963e-08 -5.0963e-08 1.76419e-07 1.76419e-07 -5.0963e-08 -5.0963e-08 1.76419e-07 1.76419e-07 1.76419e-07 1.76419e-07 -3.82678e-07 -3.82678e-07 1.76419e-07 1.76419e-07 -3.82678e-07 -3.82678e-07 -3.82678e-07 -3.82678e-07 -2.82969e-07 -2.82969e-07 -3.82678e-07 -3.82678e-07 -2.82969e-07 -2.82969e-07 -2.82969e-07 -2.82969e-07 7.42273e-06 7.42273e-06 -2.82969e-07 -2.82969e-07 7.42273e-06 7.42273e-06 -3.82678e-07 -3.82678e-07 -2.82969e-07 -2.82969e-07 -3.82678e-07 -3.82678e-07 -2.82969e-07 -2.82969e-07 -2.82969e-07 -2.82969e-07 7.42273e-06 7.42273e-06 -2.82969e-07 -2.82969e-07 7.42273e-06 7.42273e-06 7.42273e-06 7.42273e-06 -2.90721e-05 -2.90721e-05 7.42273e-06 7.42273e-06 -2.90721e-05 -2.90721e-05 -2.90721e-05 -2.90721e-05 -0.00013 -0.00013 -2.90721e-05 -2.90721e-05 -0.00013 -0.00013 7.42273e-06 7.42273e-06 -2.90721e-05 -2.90721e-05 7.42273e-06 7.42273e-06 -2.90721e-05 -2.90721e-05 -2.90721e-05 -2.90721e-05 -0.00013 -0.00013 -2.90721e-05 -2.90721e-05 -0.00013 -0.00013 -3.82678e-07 -3.82678e-07 -2.82969e-07 -2.82969e-07 -3.82678e-07 -3.82678e-07 -2.82969e-07 -2.82969e-07 -2.82969e-07 -2.82969e-07 7.42273e-06 7.42273e-06 -2.82969e-07 -2.82969e-07 7.42273e-06 7.42273e-06 -3.82678e-07 -3.82678e-07 -2.82969e-07 -2.82969e-07 -3.82678e-07 -3.82678e-07 -2.82969e-07 -2.82969e-07 -2.82969e-07 -2.82969e-07 7.42273e-06 7.42273e-06 -2.82969e-07 -2.82969e-07 7.42273e-06 7.42273e-06 7.42273e-06 7.42273e-06 -2.90721e-05 -2.90721e-05 7.42273e-06 7.42273e-06 -2.90721e-05 -2.90721e-05 -2.90721e-05 -2.90721e-05 -0.00013 -0.00013 -2.90721e-05 -2.90721e-05 -0.00013 -0.00013 7.42273e-06 7.42273e-06 -2.90721e-05 -2.90721e-05 7.42273e-06 7.42273e-06 -2.90721e-05 -2.90721e-05 -2.90721e-05 -2.90721e-05 -0.00013 -0.00013 -2.90721e-05 -2.90721e-05 -0.00013 -0.00013 8.59377e-14 1.692e-13 -4.00631e-13 -4.14252e-13 1.692e-13 1.78204e-13 -4.14252e-13 -4.1776e-13 -4.00631e-13 -4.14252e-13 1.66465e-12 1.66591e-12 -4.14252e-13 -4.1776e-13 1.66591e-12 1.66707e-12 1.78204e-13 1.69647e-13 -4.1776e-13 -4.16158e-13 1.69647e-13 1.72389e-13 -4.16158e-13 -4.16531e-13 -4.1776e-13 -4.16158e-13 1.66707e-12 1.66681e-12 -4.16158e-13 -4.16531e-13 1.66681e-12 1.66676e-12 1.66465e-12 1.66591e-12 -6.23827e-12 -6.2379e-12 1.66591e-12 1.66707e-12 -6.2379e-12 -6.23825e-12 -6.23827e-12 -6.2379e-12 2.08682e-11 2.08679e-11 -6.2379e-12 -6.23825e-12 2.08679e-11 2.0868e-11 1.66707e-12 1.66681e-12 -6.23825e-12 -6.23828e-12 1.66681e-12 1.66676e-12 -6.23828e-12 -6.2382e-12 -6.23825e-12 -6.23828e-12 2.0868e-11 2.08681e-11 -6.23828e-12 -6.2382e-12 2.08681e-11 2.0868e-11 1.72389e-13 1.71835e-13 -4.16531e-13 -4.1647e-13 1.71835e-13 1.71888e-13 -4.1647e-13 -4.16476e-13 -4.16531e-13 -4.1647e-13 1.66676e-12 1.66681e-12 -4.1647e-13 -4.16476e-13 1.66681e-12 1.66679e-12 1.71888e-13 1.71901e-13 -4.16476e-13 -4.16477e-13 1.71901e-13 1.71892e-13 -4.16477e-13 -4.16476e-13 -4.16476e-13 -4.16477e-13 1.66679e-12 1.6668e-12 -4.16477e-13 -4.16476e-13 1.6668e-12 1.6668e-12 1.66676e-12 1.66681e-12 -6.2382e-12 -6.23824e-12 1.66681e-12 1.66679e-12 -6.23824e-12 -6.23823e-12 -6.2382e-12 -6.23824e-12 2.0868e-11 2.0868e-11 -6.23824e-12 -6.23823e-12 2.0868e-11 2.0868e-11 1.66679e-12 1.6668e-12 -6.23823e-12 -6.23823e-12 1.6668e-12 1.6668e-12 -6.23823e-12 -6.23823e-12 -6.23823e-12 -6.23823e-12 2.0868e-11 2.0868e-11 -6.23823e-12 -6.23823e-12 2.0868e-11 2.0868e-11 2.08682e-11 2.08679e-11 -5.95511e-11 -5.9551e-11 2.08679e-11 2.0868e-11 -5.9551e-11 -5.9551e-11 -5.95511e-11 -5.9551e-11 1.24002e-10 1.24002e-10 -5.9551e-11 -5.9551e-11 1.24002e-10 1.24002e-10 2.0868e-11 2.08681e-11 -5.9551e-11 -5.9551e-11 2.08681e-11 2.0868e-11 -5.9551e-11 -5.9551e-11 -5.9551e-11 -5.9551e-11 1.24002e-10 1.24002e-10 -5.9551e-11 -5.9551e-11 1.24002e-10 1.24002e-10 1.24002e-10 1.24002e-10 -2.50547e-11 -2.50547e-11 1.24002e-10 1.24002e-10 -2.50547e-11 -2.50547e-11 -2.50547e-11 -2.50547e-11 -1.56745e-09 -1.56745e-09 -2.50547e-11 -2.50547e-11 -1.56745e-09 -1.56745e-09 1.24002e-10 1.24002e-10 -2.50547e-11 -2.50547e-11 1.24002e-10 1.24002e-10 -2.50547e-11 -2.50547e-11 -2.50547e-11 -2.50547e-11 -1.56745e-09 -1.56745e-09 -2.50547e-11 -2.50547e-11 -1.56745e-09 -1.56745e-09 2.0868e-11 2.0868e-11 -5.9551e-11 -5.9551e-11 2.0868e-11 2.0868e-11 -5.9551e-11 -5.9551e-11 -5.9551e-11 -5.9551e-11 1.24002e-10 1.24002e-10 -5.9551e-11 -5.9551e-11 1.24002e-10 1.24002e-10 2.0868e-11 2.0868e-11 -5.9551e-11 -5.9551e-11 2.0868e-11 2.0868e-11 -5.9551e-11 -5.9551e-11 -5.9551e-11 -5.9551e-11 1.24002e-10 1.24002e-10 -5.9551e-11 -5.9551e-11 1.24002e-10 1.24002e-10 1.24002e-10 1.24002e-10 -2.50547e-11 -2.50547e-11 1.24002e-10 1.24002e-10 -2.50547e-11 -2.50547e-11 -2.50547e-11 -2.50547e-11 -1.56745e-09 -1.56745e-09 -2.50547e-11 -2.50547e-11 -1.56745e-09 -1.56745e-09 1.24002e-10 1.24002e-10 -2.50547e-11 -2.50547e-11 1.24002e-10 1.24002e-10 -2.50547e-11 -2.50547e-11 -2.50547e-11 -2.50547e-11 -1.56745e-09 -1.56745e-09 -2.50547e-11 -2.50547e-11 -1.56745e-09 -1.56745e-09 1.71892e-13 1.71895e-13 -4.16476e-13 -4.16476e-13 1.71895e-13 1.71894e-13 -4.16476e-13 -4.16476e-13 -4.16476e-13 -4.16476e-13 1.6668e-12 1.6668e-12 -4.16476e-13 -4.16476e-13 1.6668e-12 1.6668e-12 1.71894e-13 1.71895e-13 -4.16476e-13 -4.16476e-13 1.71895e-13 1.71895e-13 -4.16476e-13 -4.16476e-13 -4.16476e-13 -4.16476e-13 1.6668e-12 1.6668e-12 -4.16476e-13 -4.16476e-13 1.6668e-12 1.6668e-12 1.6668e-12 1.6668e-12 -6.23823e-12 -6.23823e-12 1.6668e-12 1.6668e-12 -6.23823e-12 -6.23823e-12 -6.23823e-12 -6.23823e-12 2.0868e-11 2.0868e-11 -6.23823e-12 -6.23823e-12 2.0868e-11 2.0868e-11 1.6668e-12 1.6668e-12 -6.23823e-12 -6.23823e-12 1.6668e-12 1.6668e-12 -6.23823e-12 -6.23823e-12 -6.23823e-12 -6.23823e-12 2.0868e-11 2.0868e-11 -6.23823e-12 -6.23823e-12 2.0868e-11 2.0868e-11 1.71895e-13 1.71895e-13 -4.16476e-13 -4.16476e-13 1.71895e-13 1.71895e-13 -4.16476e-13 -4.16476e-13 -4.16476e-13 -4.16476e-13 1.6668e-12 1.6668e-12 -4.16476e-13 -4.16476e-13 1.6668e-12 1.6668e-12 1.71895e-13 1.71895e-13 -4.16476e-13 -4.16476e-13 1.71895e-13 1.71895e-13 -4.16476e-13 -4.16476e-13 -4.16476e-13 -4.16476e-13 1.6668e-12 1.6668e-12 -4.16476e-13 -4.16476e-13 1.6668e-12 1.6668e-12 1.6668e-12 1.6668e-12 -6.23823e-12 -6.23823e-12 1.6668e-12 1.6668e-12 -6.23823e-12 -6.23823e-12 -6.23823e-12 -6.23823e-12 2.0868e-11 2.0868e-11 -6.23823e-12 -6.23823e-12 2.0868e-11 2.0868e-11 1.6668e-12 1.6668e-12 -6.23823e-12 -6.23823e-12 1.6668e-12 1.6668e-12 -6.23823e-12 -6.23823e-12 -6.23823e-12 -6.23823e-12 2.0868e-11 2.0868e-11 -6.23823e-12 -6.23823e-12 2.0868e-11 2.0868e-11 2.0868e-11 2.0868e-11 -5.9551e-11 -5.9551e-11 2.0868e-11 2.0868e-11 -5.9551e-11 -5.9551e-11 -5.9551e-11 -5.9551e-11 1.24002e-10 1.24002e-10 -5.9551e-11 -5.9551e-11 1.24002e-10 1.24002e-10 2.0868e-11 2.0868e-11 -5.9551e-11 -5.9551e-11 2.0868e-11 2.0868e-11 -5.9551e-11 -5.9551e-11 -5.9551e-11 -5.9551e-11 1.24002e-10 1.24002e-10 -5.9551e-11 -5.9551e-11 1.24002e-10 1.24002e-10 1.24002e-10 1.24002e-10 -2.50547e-11 -2.50547e-11 1.24002e-10 1.24002e-10 -2.50547e-11 -2.50546e-11 -2.50547e-11 -2.50547e-11 -1.56745e-09 -1.56745e-09 -2.50547e-11 -2.50546e-11 -1.56745e-09 -1.56745e-09 1.24002e-10 1.24002e-10 -2.50546e-11 -2.50548e-11 1.24002e-10 1.24002e-10 -2.50548e-11 -2.50545e-11 -2.50546e-11 -2.50548e-11 -1.56745e-09 -1.56745e-09 -2.50548e-11 -2.50545e-11 -1.56745e-09 -1.56745e-09 2.0868e-11 2.0868e-11 -5.9551e-11 -5.9551e-11 2.0868e-11 2.0868e-11 -5.9551e-11 -5.9551e-11 -5.9551e-11 -5.9551e-11 1.24002e-10 1.24002e-10 -5.9551e-11 -5.9551e-11 1.24002e-10 1.24002e-10 2.0868e-11 2.0868e-11 -5.9551e-11 -5.9551e-11 2.0868e-11 2.0868e-11 -5.9551e-11 -5.9551e-11 -5.9551e-11 -5.9551e-11 1.24002e-10 1.24002e-10 -5.9551e-11 -5.9551e-11 1.24002e-10 1.24002e-10 1.24002e-10 1.24002e-10 -2.50545e-11 -2.50548e-11 1.24002e-10 1.24002e-10 -2.50548e-11 -2.50546e-11 -2.50545e-11 -2.50548e-11 -1.56745e-09 -1.56745e-09 -2.50548e-11 -2.50546e-11 -1.56745e-09 -1.56745e-09 1.24002e-10 1.24002e-10 -2.50546e-11 -2.50548e-11 1.24002e-10 1.24002e-10 -2.50548e-11 -2.50544e-11 -2.50546e-11 -2.50548e-11 -1.56745e-09 -1.56745e-09 -2.50548e-11 -2.50544e-11 -1.56745e-09 -1.56745e-09 -1.56745e-09 -1.56745e-09 1.09683e-08 1.09683e-08 -1.56745e-09 -1.56745e-09 1.09683e-08 1.09683e-08 1.09683e-08 1.09683e-08 -5.0963e-08 -5.0963e-08 1.09683e-08 1.09683e-08 -5.0963e-08 -5.0963e-08 -1.56745e-09 -1.56745e-09 1.09683e-08 1.09683e-08 -1.56745e-09 -1.56745e-09 1.09683e-08 1.09683e-08 1.09683e-08 1.09683e-08 -5.0963e-08 -5.0963e-08 1.09683e-08 1.09683e-08 -5.0963e-08 -5.0963e-08 -5.0963e-08 -5.0963e-08 1.76419e-07 1.76419e-07 -5.0963e-08 -5.0963e-08 1.76419e-07 1.76419e-07 1.76419e-07 1.76419e-07 -3.82678e-07 -3.82678e-07 1.76419e-07 1.76419e-07 -3.82678e-07 -3.82678e-07 -5.0963e-08 -5.0963e-08 1.76419e-07 1.76419e-07 -5.0963e-08 -5.0963e-08 1.76419e-07 1.76419e-07 1.76419e-07 1.76419e-07 -3.82678e-07 -3.82678e-07 1.76419e-07 1.76419e-07 -3.82678e-07 -3.82678e-07 -1.56745e-09 -1.56745e-09 1.09683e-08 1.09683e-08 -1.56745e-09 -1.56745e-09 1.09683e-08 1.09683e-08 1.09683e-08 1.09683e-08 -5.0963e-08 -5.0963e-08 1.09683e-08 1.09683e-08 -5.0963e-08 -5.0963e