# vtk DataFile Version 3.0
#This file was generated by the deal.II library on 2022/11/16 at 21:28:17
ASCII
DATASET UNSTRUCTURED_GRID

POINTS 4096 double
0 0.5 0
0.03125 0.5 0
0 0.53125 0
0.03125 0.53125 0
0.03125 0.5 0
0.0625 0.5 0
0.03125 0.53125 0
0.0625 0.53125 0
0 0.53125 0
0.03125 0.53125 0
0 0.5625 0
0.03125 0.5625 0
0.03125 0.53125 0
0.0625 0.53125 0
0.03125 0.5625 0
0.0625 0.5625 0
0.0625 0.5 0
0.09375 0.5 0
0.0625 0.53125 0
0.09375 0.53125 0
0.09375 0.5 0
0.125 0.5 0
0.09375 0.53125 0
0.125 0.53125 0
0.0625 0.53125 0
0.09375 0.53125 0
0.0625 0.5625 0
0.09375 0.5625 0
0.09375 0.53125 0
0.125 0.53125 0
0.09375 0.5625 0
0.125 0.5625 0
0 0.5625 0
0.03125 0.5625 0
0 0.59375 0
0.03125 0.59375 0
0.03125 0.5625 0
0.0625 0.5625 0
0.03125 0.59375 0
0.0625 0.59375 0
0 0.59375 0
0.03125 0.59375 0
0 0.625 0
0.03125 0.625 0
0.03125 0.59375 0
0.0625 0.59375 0
0.03125 0.625 0
0.0625 0.625 0
0.0625 0.5625 0
0.09375 0.5625 0
0.0625 0.59375 0
0.09375 0.59375 0
0.09375 0.5625 0
0.125 0.5625 0
0.09375 0.59375 0
0.125 0.59375 0
0.0625 0.59375 0
0.09375 0.59375 0
0.0625 0.625 0
0.09375 0.625 0
0.09375 0.59375 0
0.125 0.59375 0
0.09375 0.625 0
0.125 0.625 0
0.125 0.5 0
0.15625 0.5 0
0.125 0.53125 0
0.15625 0.53125 0
0.15625 0.5 0
0.1875 0.5 0
0.15625 0.53125 0
0.1875 0.53125 0
0.125 0.53125 0
0.15625 0.53125 0
0.125 0.5625 0
0.15625 0.5625 0
0.15625 0.53125 0
0.1875 0.53125 0
0.15625 0.5625 0
0.1875 0.5625 0
0.1875 0.5 0
0.21875 0.5 0
0.1875 0.53125 0
0.21875 0.53125 0
0.21875 0.5 0
0.25 0.5 0
0.21875 0.53125 0
0.25 0.53125 0
0.1875 0.53125 0
0.21875 0.53125 0
0.1875 0.5625 0
0.21875 0.5625 0
0.21875 0.53125 0
0.25 0.53125 0
0.21875 0.5625 0
0.25 0.5625 0
0.125 0.5625 0
0.15625 0.5625 0
0.125 0.59375 0
0.15625 0.59375 0
0.15625 0.5625 0
0.1875 0.5625 0
0.15625 0.59375 0
0.1875 0.59375 0
0.125 0.59375 0
0.15625 0.59375 0
0.125 0.625 0
0.15625 0.625 0
0.15625 0.59375 0
0.1875 0.59375 0
0.15625 0.625 0
0.1875 0.625 0
0.1875 0.5625 0
0.21875 0.5625 0
0.1875 0.59375 0
0.21875 0.59375 0
0.21875 0.5625 0
0.25 0.5625 0
0.21875 0.59375 0
0.25 0.59375 0
0.1875 0.59375 0
0.21875 0.59375 0
0.1875 0.625 0
0.21875 0.625 0
0.21875 0.59375 0
0.25 0.59375 0
0.21875 0.625 0
0.25 0.625 0
0 0.625 0
0.03125 0.625 0
0 0.65625 0
0.03125 0.65625 0
0.03125 0.625 0
0.0625 0.625 0
0.03125 0.65625 0
0.0625 0.65625 0
0 0.65625 0
0.03125 0.65625 0
0 0.6875 0
0.03125 0.6875 0
0.03125 0.65625 0
0.0625 0.65625 0
0.03125 0.6875 0
0.0625 0.6875 0
0.0625 0.625 0
0.09375 0.625 0
0.0625 0.65625 0
0.09375 0.65625 0
0.09375 0.625 0
0.125 0.625 0
0.09375 0.65625 0
0.125 0.65625 0
0.0625 0.65625 0
0.09375 0.65625 0
0.0625 0.6875 0
0.09375 0.6875 0
0.09375 0.65625 0
0.125 0.65625 0
0.09375 0.6875 0
0.125 0.6875 0
0 0.6875 0
0.03125 0.6875 0
0 0.71875 0
0.03125 0.71875 0
0.03125 0.6875 0
0.0625 0.6875 0
0.03125 0.71875 0
0.0625 0.71875 0
0 0.71875 0
0.03125 0.71875 0
0 0.75 0
0.03125 0.75 0
0.03125 0.71875 0
0.0625 0.71875 0
0.03125 0.75 0
0.0625 0.75 0
0.0625 0.6875 0
0.09375 0.6875 0
0.0625 0.71875 0
0.09375 0.71875 0
0.09375 0.6875 0
0.125 0.6875 0
0.09375 0.71875 0
0.125 0.71875 0
0.0625 0.71875 0
0.09375 0.71875 0
0.0625 0.75 0
0.09375 0.75 0
0.09375 0.71875 0
0.125 0.71875 0
0.09375 0.75 0
0.125 0.75 0
0.125 0.625 0
0.15625 0.625 0
0.125 0.65625 0
0.15625 0.65625 0
0.15625 0.625 0
0.1875 0.625 0
0.15625 0.65625 0
0.1875 0.65625 0
0.125 0.65625 0
0.15625 0.65625 0
0.125 0.6875 0
0.15625 0.6875 0
0.15625 0.65625 0
0.1875 0.65625 0
0.15625 0.6875 0
0.1875 0.6875 0
0.1875 0.625 0
0.21875 0.625 0
0.1875 0.65625 0
0.21875 0.65625 0
0.21875 0.625 0
0.25 0.625 0
0.21875 0.65625 0
0.25 0.65625 0
0.1875 0.65625 0
0.21875 0.65625 0
0.1875 0.6875 0
0.21875 0.6875 0
0.21875 0.65625 0
0.25 0.65625 0
0.21875 0.6875 0
0.25 0.6875 0
0.125 0.6875 0
0.15625 0.6875 0
0.125 0.71875 0
0.15625 0.71875 0
0.15625 0.6875 0
0.1875 0.6875 0
0.15625 0.71875 0
0.1875 0.71875 0
0.125 0.71875 0
0.15625 0.71875 0
0.125 0.75 0
0.15625 0.75 0
0.15625 0.71875 0
0.1875 0.71875 0
0.15625 0.75 0
0.1875 0.75 0
0.1875 0.6875 0
0.21875 0.6875 0
0.1875 0.71875 0
0.21875 0.71875 0
0.21875 0.6875 0
0.25 0.6875 0
0.21875 0.71875 0
0.25 0.71875 0
0.1875 0.71875 0
0.21875 0.71875 0
0.1875 0.75 0
0.21875 0.75 0
0.21875 0.71875 0
0.25 0.71875 0
0.21875 0.75 0
0.25 0.75 0
0.25 0.5 0
0.28125 0.5 0
0.25 0.53125 0
0.28125 0.53125 0
0.28125 0.5 0
0.3125 0.5 0
0.28125 0.53125 0
0.3125 0.53125 0
0.25 0.53125 0
0.28125 0.53125 0
0.25 0.5625 0
0.28125 0.5625 0
0.28125 0.53125 0
0.3125 0.53125 0
0.28125 0.5625 0
0.3125 0.5625 0
0.3125 0.5 0
0.34375 0.5 0
0.3125 0.53125 0
0.34375 0.53125 0
0.34375 0.5 0
0.375 0.5 0
0.34375 0.53125 0
0.375 0.53125 0
0.3125 0.53125 0
0.34375 0.53125 0
0.3125 0.5625 0
0.34375 0.5625 0
0.34375 0.53125 0
0.375 0.53125 0
0.34375 0.5625 0
0.375 0.5625 0
0.25 0.5625 0
0.28125 0.5625 0
0.25 0.59375 0
0.28125 0.59375 0
0.28125 0.5625 0
0.3125 0.5625 0
0.28125 0.59375 0
0.3125 0.59375 0
0.25 0.59375 0
0.28125 0.59375 0
0.25 0.625 0
0.28125 0.625 0
0.28125 0.59375 0
0.3125 0.59375 0
0.28125 0.625 0
0.3125 0.625 0
0.3125 0.5625 0
0.34375 0.5625 0
0.3125 0.59375 0
0.34375 0.59375 0
0.34375 0.5625 0
0.375 0.5625 0
0.34375 0.59375 0
0.375 0.59375 0
0.3125 0.59375 0
0.34375 0.59375 0
0.3125 0.625 0
0.34375 0.625 0
0.34375 0.59375 0
0.375 0.59375 0
0.34375 0.625 0
0.375 0.625 0
0.375 0.5 0
0.40625 0.5 0
0.375 0.53125 0
0.40625 0.53125 0
0.40625 0.5 0
0.4375 0.5 0
0.40625 0.53125 0
0.4375 0.53125 0
0.375 0.53125 0
0.40625 0.53125 0
0.375 0.5625 0
0.40625 0.5625 0
0.40625 0.53125 0
0.4375 0.53125 0
0.40625 0.5625 0
0.4375 0.5625 0
0.4375 0.5 0
0.46875 0.5 0
0.4375 0.53125 0
0.46875 0.53125 0
0.46875 0.5 0
0.5 0.5 0
0.46875 0.53125 0
0.5 0.53125 0
0.4375 0.53125 0
0.46875 0.53125 0
0.4375 0.5625 0
0.46875 0.5625 0
0.46875 0.53125 0
0.5 0.53125 0
0.46875 0.5625 0
0.5 0.5625 0
0.375 0.5625 0
0.40625 0.5625 0
0.375 0.59375 0
0.40625 0.59375 0
0.40625 0.5625 0
0.4375 0.5625 0
0.40625 0.59375 0
0.4375 0.59375 0
0.375 0.59375 0
0.40625 0.59375 0
0.375 0.625 0
0.40625 0.625 0
0.40625 0.59375 0
0.4375 0.59375 0
0.40625 0.625 0
0.4375 0.625 0
0.4375 0.5625 0
0.46875 0.5625 0
0.4375 0.59375 0
0.46875 0.59375 0
0.46875 0.5625 0
0.5 0.5625 0
0.46875 0.59375 0
0.5 0.59375 0
0.4375 0.59375 0
0.46875 0.59375 0
0.4375 0.625 0
0.46875 0.625 0
0.46875 0.59375 0
0.5 0.59375 0
0.46875 0.625 0
0.5 0.625 0
0.25 0.625 0
0.28125 0.625 0
0.25 0.65625 0
0.28125 0.65625 0
0.28125 0.625 0
0.3125 0.625 0
0.28125 0.65625 0
0.3125 0.65625 0
0.25 0.65625 0
0.28125 0.65625 0
0.25 0.6875 0
0.28125 0.6875 0
0.28125 0.65625 0
0.3125 0.65625 0
0.28125 0.6875 0
0.3125 0.6875 0
0.3125 0.625 0
0.34375 0.625 0
0.3125 0.65625 0
0.34375 0.65625 0
0.34375 0.625 0
0.375 0.625 0
0.34375 0.65625 0
0.375 0.65625 0
0.3125 0.65625 0
0.34375 0.65625 0
0.3125 0.6875 0
0.34375 0.6875 0
0.34375 0.65625 0
0.375 0.65625 0
0.34375 0.6875 0
0.375 0.6875 0
0.25 0.6875 0
0.28125 0.6875 0
0.25 0.71875 0
0.28125 0.71875 0
0.28125 0.6875 0
0.3125 0.6875 0
0.28125 0.71875 0
0.3125 0.71875 0
0.25 0.71875 0
0.28125 0.71875 0
0.25 0.75 0
0.28125 0.75 0
0.28125 0.71875 0
0.3125 0.71875 0
0.28125 0.75 0
0.3125 0.75 0
0.3125 0.6875 0
0.34375 0.6875 0
0.3125 0.71875 0
0.34375 0.71875 0
0.34375 0.6875 0
0.375 0.6875 0
0.34375 0.71875 0
0.375 0.71875 0
0.3125 0.71875 0
0.34375 0.71875 0
0.3125 0.75 0
0.34375 0.75 0
0.34375 0.71875 0
0.375 0.71875 0
0.34375 0.75 0
0.375 0.75 0
0.375 0.625 0
0.40625 0.625 0
0.375 0.65625 0
0.40625 0.65625 0
0.40625 0.625 0
0.4375 0.625 0
0.40625 0.65625 0
0.4375 0.65625 0
0.375 0.65625 0
0.40625 0.65625 0
0.375 0.6875 0
0.40625 0.6875 0
0.40625 0.65625 0
0.4375 0.65625 0
0.40625 0.6875 0
0.4375 0.6875 0
0.4375 0.625 0
0.46875 0.625 0
0.4375 0.65625 0
0.46875 0.65625 0
0.46875 0.625 0
0.5 0.625 0
0.46875 0.65625 0
0.5 0.65625 0
0.4375 0.65625 0
0.46875 0.65625 0
0.4375 0.6875 0
0.46875 0.6875 0
0.46875 0.65625 0
0.5 0.65625 0
0.46875 0.6875 0
0.5 0.6875 0
0.375 0.6875 0
0.40625 0.6875 0
0.375 0.71875 0
0.40625 0.71875 0
0.40625 0.6875 0
0.4375 0.6875 0
0.40625 0.71875 0
0.4375 0.71875 0
0.375 0.71875 0
0.40625 0.71875 0
0.375 0.75 0
0.40625 0.75 0
0.40625 0.71875 0
0.4375 0.71875 0
0.40625 0.75 0
0.4375 0.75 0
0.4375 0.6875 0
0.46875 0.6875 0
0.4375 0.71875 0
0.46875 0.71875 0
0.46875 0.6875 0
0.5 0.6875 0
0.46875 0.71875 0
0.5 0.71875 0
0.4375 0.71875 0
0.46875 0.71875 0
0.4375 0.75 0
0.46875 0.75 0
0.46875 0.71875 0
0.5 0.71875 0
0.46875 0.75 0
0.5 0.75 0
0 0.75 0
0.03125 0.75 0
0 0.78125 0
0.03125 0.78125 0
0.03125 0.75 0
0.0625 0.75 0
0.03125 0.78125 0
0.0625 0.78125 0
0 0.78125 0
0.03125 0.78125 0
0 0.8125 0
0.03125 0.8125 0
0.03125 0.78125 0
0.0625 0.78125 0
0.03125 0.8125 0
0.0625 0.8125 0
0.0625 0.75 0
0.09375 0.75 0
0.0625 0.78125 0
0.09375 0.78125 0
0.09375 0.75 0
0.125 0.75 0
0.09375 0.78125 0
0.125 0.78125 0
0.0625 0.78125 0
0.09375 0.78125 0
0.0625 0.8125 0
0.09375 0.8125 0
0.09375 0.78125 0
0.125 0.78125 0
0.09375 0.8125 0
0.125 0.8125 0
0 0.8125 0
0.03125 0.8125 0
0 0.84375 0
0.03125 0.84375 0
0.03125 0.8125 0
0.0625 0.8125 0
0.03125 0.84375 0
0.0625 0.84375 0
0 0.84375 0
0.03125 0.84375 0
0 0.875 0
0.03125 0.875 0
0.03125 0.84375 0
0.0625 0.84375 0
0.03125 0.875 0
0.0625 0.875 0
0.0625 0.8125 0
0.09375 0.8125 0
0.0625 0.84375 0
0.09375 0.84375 0
0.09375 0.8125 0
0.125 0.8125 0
0.09375 0.84375 0
0.125 0.84375 0
0.0625 0.84375 0
0.09375 0.84375 0
0.0625 0.875 0
0.09375 0.875 0
0.09375 0.84375 0
0.125 0.84375 0
0.09375 0.875 0
0.125 0.875 0
0.125 0.75 0
0.15625 0.75 0
0.125 0.78125 0
0.15625 0.78125 0
0.15625 0.75 0
0.1875 0.75 0
0.15625 0.78125 0
0.1875 0.78125 0
0.125 0.78125 0
0.15625 0.78125 0
0.125 0.8125 0
0.15625 0.8125 0
0.15625 0.78125 0
0.1875 0.78125 0
0.15625 0.8125 0
0.1875 0.8125 0
0.1875 0.75 0
0.21875 0.75 0
0.1875 0.78125 0
0.21875 0.78125 0
0.21875 0.75 0
0.25 0.75 0
0.21875 0.78125 0
0.25 0.78125 0
0.1875 0.78125 0
0.21875 0.78125 0
0.1875 0.8125 0
0.21875 0.8125 0
0.21875 0.78125 0
0.25 0.78125 0
0.21875 0.8125 0
0.25 0.8125 0
0.125 0.8125 0
0.15625 0.8125 0
0.125 0.84375 0
0.15625 0.84375 0
0.15625 0.8125 0
[...]
POINT_DATA 4096
SCALARS x_dis double 1
LOOKUP_TABLE default
9.69417e-06 9.69444e-06 -5.77924e-06 -5.77885e-06 9.69444e-06 9.69521e-06 -5.77885e-06 -5.77775e-06 -5.77924e-06 -5.77885e-06 -5.34018e-05 -5.34011e-05 -5.77885e-06 -5.77775e-06 -5.34011e-05 -5.33996e-05 9.69521e-06 9.69642e-06 -5.77775e-06 -5.77611e-06 9.69642e-06 9.69795e-06 -5.77611e-06 -5.77409e-06 -5.77775e-06 -5.77611e-06 -5.33996e-05 -5.33973e-05 -5.77611e-06 -5.77409e-06 -5.33973e-05 -5.33947e-05 -5.34018e-05 -5.34011e-05 -0.000130628 -0.000130626 -5.34011e-05 -5.33996e-05 -0.000130626 -0.000130624 -0.000130628 -0.000130626 -0.000226807 -0.000226804 -0.000130626 -0.000130624 -0.000226804 -0.000226801 -5.33996e-05 -5.33973e-05 -0.000130624 -0.000130621 -5.33973e-05 -5.33947e-05 -0.000130621 -0.000130617 -0.000130624 -0.000130621 -0.000226801 -0.000226797 -0.000130621 -0.000130617 -0.000226797 -0.000226793 9.69795e-06 9.69971e-06 -5.77409e-06 -5.77193e-06 9.69971e-06 9.70158e-06 -5.77193e-06 -5.76973e-06 -5.77409e-06 -5.77193e-06 -5.33947e-05 -5.3392e-05 -5.77193e-06 -5.76973e-06 -5.3392e-05 -5.33893e-05 9.70158e-06 9.70353e-06 -5.76973e-06 -5.76723e-06 9.70353e-06 9.7056e-06 -5.76723e-06 -5.76387e-06 -5.76973e-06 -5.76723e-06 -5.33893e-05 -5.33863e-05 -5.76723e-06 -5.76387e-06 -5.33863e-05 -5.33818e-05 -5.33947e-05 -5.3392e-05 -0.000130617 -0.000130614 -5.3392e-05 -5.33893e-05 -0.000130614 -0.000130611 -0.000130617 -0.000130614 -0.000226793 -0.000226788 -0.000130614 -0.000130611 -0.000226788 -0.000226784 -5.33893e-05 -5.33863e-05 -0.000130611 -0.000130607 -5.33863e-05 -5.33818e-05 -0.000130607 -0.000130602 -0.000130611 -0.000130607 -0.000226784 -0.00022678 -0.000130607 -0.000130602 -0.00022678 -0.000226775 -0.000226807 -0.000226804 -0.00033206 -0.000332055 -0.000226804 -0.000226801 -0.000332055 -0.00033205 -0.00033206 -0.000332055 -0.000440704 -0.000440698 -0.000332055 -0.00033205 -0.000440698 -0.000440692 -0.000226801 -0.000226797 -0.00033205 -0.000332045 -0.000226797 -0.000226793 -0.000332045 -0.00033204 -0.00033205 -0.000332045 -0.000440692 -0.000440686 -0.000332045 -0.00033204 -0.000440686 -0.00044068 -0.000440704 -0.000440698 -0.000550352 -0.000550344 -0.000440698 -0.000440692 -0.000550344 -0.000550337 -0.000550352 -0.000550344 -0.000660248 -0.000660239 -0.000550344 -0.000550337 -0.000660239 -0.000660229 -0.000440692 -0.000440686 -0.000550337 -0.000550329 -0.000440686 -0.00044068 -0.000550329 -0.000550322 -0.000550337 -0.000550329 -0.000660229 -0.000660221 -0.000550329 -0.000550322 -0.000660221 -0.000660212 -0.000226793 -0.000226788 -0.00033204 -0.000332035 -0.000226788 -0.000226784 -0.000332035 -0.00033203 -0.00033204 -0.000332035 -0.00044068 -0.000440673 -0.000332035 -0.00033203 -0.000440673 -0.000440668 -0.000226784 -0.00022678 -0.00033203 -0.000332025 -0.00022678 -0.000226775 -0.000332025 -0.00033202 -0.00033203 -0.000332025 -0.000440668 -0.000440662 -0.000332025 -0.00033202 -0.000440662 -0.000440657 -0.00044068 -0.000440673 -0.000550322 -0.000550315 -0.000440673 -0.000440668 -0.000550315 -0.000550308 -0.000550322 -0.000550315 -0.000660212 -0.000660204 -0.000550315 -0.000550308 -0.000660204 -0.000660197 -0.000440668 -0.000440662 -0.000550308 -0.000550302 -0.000440662 -0.000440657 -0.000550302 -0.000550297 -0.000550308 -0.000550302 -0.000660197 -0.000660191 -0.000550302 -0.000550297 -0.000660191 -0.000660185 9.7056e-06 9.70783e-06 -5.76387e-06 -5.75901e-06 9.70783e-06 9.70993e-06 -5.75901e-06 -5.75434e-06 -5.76387e-06 -5.75901e-06 -5.33818e-05 -5.33755e-05 -5.75901e-06 -5.75434e-06 -5.33755e-05 -5.33693e-05 9.70993e-06 9.71104e-06 -5.75434e-06 -5.76108e-06 9.71104e-06 9.71088e-06 -5.76108e-06 -5.79809e-06 -5.75434e-06 -5.76108e-06 -5.33693e-05 -5.33752e-05 -5.76108e-06 -5.79809e-06 -5.33752e-05 -5.34149e-05 -5.33818e-05 -5.33755e-05 -0.000130602 -0.000130595 -5.33755e-05 -5.33693e-05 -0.000130595 -0.000130588 -0.000130602 -0.000130595 -0.000226775 -0.000226768 -0.000130595 -0.000130588 -0.000226768 -0.000226761 -5.33693e-05 -5.33752e-05 -0.000130588 -0.00013059 -5.33752e-05 -5.34149e-05 -0.00013059 -0.000130611 -0.000130588 -0.00013059 -0.000226761 -0.000226759 -0.00013059 -0.000130611 -0.000226759 -0.000226768 9.71088e-06 9.71178e-06 -5.79809e-06 -5.8506e-06 9.71178e-06 9.71661e-06 -5.8506e-06 -5.7924e-06 -5.79809e-06 -5.8506e-06 -5.34149e-05 -5.34835e-05 -5.8506e-06 -5.7924e-06 -5.34835e-05 -5.3511e-05 9.71661e-06 9.71792e-06 -5.7924e-06 -5.33255e-06 9.71792e-06 9.71054e-06 -5.33255e-06 -3.85469e-06 -5.7924e-06 -5.33255e-06 -5.3511e-05 -5.34129e-05 -5.33255e-06 -3.85469e-06 -5.34129e-05 -5.35032e-05 -5.34149e-05 -5.34835e-05 -0.000130611 -0.000130648 -5.34835e-05 -5.3511e-05 -0.000130648 -0.000130685 -0.000130611 -0.000130648 -0.000226768 -0.000226783 -0.000130648 -0.000130685 -0.000226783 -0.000226787 -5.3511e-05 -5.34129e-05 -0.000130685 -0.000130789 -5.34129e-05 -5.35032e-05 -0.000130789 -0.000131057 -0.000130685 -0.000130789 -0.000226787 -0.000226765 -0.000130789 -0.000131057 -0.000226765 -0.000226722 -0.000226775 -0.000226768 -0.00033202 -0.000332014 -0.000226768 -0.000226761 -0.000332014 -0.000332006 -0.00033202 -0.000332014 -0.000440657 -0.000440651 -0.000332014 -0.000332006 -0.000440651 -0.000440645 -0.000226761 -0.000226759 -0.000332006 -0.000331999 -0.000226759 -0.000226768 -0.000331999 -0.000332 -0.000332006 -0.000331999 -0.000440645 -0.000440636 -0.000331999 -0.000332 -0.000440636 -0.000440628 -0.000440657 -0.000440651 -0.000550297 -0.000550291 -0.000440651 -0.000440645 -0.000550291 -0.000550286 -0.000550297 -0.000550291 -0.000660185 -0.000660179 -0.000550291 -0.000550286 -0.000660179 -0.000660174 -0.000440645 -0.000440636 -0.000550286 -0.00055028 -0.000440636 -0.000440628 -0.00055028 -0.000550271 -0.000550286 -0.00055028 -0.000660174 -0.00066017 -0.00055028 -0.000550271 -0.00066017 -0.000660165 -0.000226768 -0.000226783 -0.000332 -0.000332011 -0.000226783 -0.000226787 -0.000332011 -0.000332019 -0.000332 -0.000332011 -0.000440628 -0.000440627 -0.000332011 -0.000332019 -0.000440627 -0.000440635 -0.000226787 -0.000226765 -0.000332019 -0.000331992 -0.000226765 -0.000226722 -0.000331992 -0.00033191 -0.000332019 -0.000331992 -0.000440635 -0.000440645 -0.000331992 -0.00033191 -0.000440645 -0.000440651 -0.000440628 -0.000440627 -0.000550271 -0.000550261 -0.000440627 -0.000440635 -0.000550261 -0.000550255 -0.000550271 -0.000550261 -0.000660165 -0.000660158 -0.000550261 -0.000550255 -0.000660158 -0.000660151 -0.000440635 -0.000440645 -0.000550255 -0.000550256 -0.000440645 -0.000440651 -0.000550256 -0.000550266 -0.000550255 -0.000550256 -0.000660151 -0.000660143 -0.000550256 -0.000550266 -0.000660143 -0.000660137 -0.000660248 -0.000660239 -0.000770194 -0.000770182 -0.000660239 -0.000660229 -0.000770182 -0.000770172 -0.000770194 -0.000770182 -0.000880155 -0.000880141 -0.000770182 -0.000770172 -0.000880141 -0.000880129 -0.000660229 -0.000660221 -0.000770172 -0.000770161 -0.000660221 -0.000660212 -0.000770161 -0.000770152 -0.000770172 -0.000770161 -0.000880129 -0.000880117 -0.000770161 -0.000770152 -0.000880117 -0.000880107 -0.000880155 -0.000880141 -0.000990122 -0.000990107 -0.000880141 -0.000880129 -0.000990107 -0.000990093 -0.000990122 -0.000990107 -0.0011001 -0.00110008 -0.000990107 -0.000990093 -0.00110008 -0.00110006 -0.000880129 -0.000880117 -0.000990093 -0.00099008 -0.000880117 -0.000880107 -0.00099008 -0.000990069 -0.000990093 -0.00099008 -0.00110006 -0.00110005 -0.00099008 -0.000990069 -0.00110005 -0.00110004 -0.000660212 -0.000660204 -0.000770152 -0.000770144 -0.000660204 -0.000660197 -0.000770144 -0.000770136 -0.000770152 -0.000770144 -0.000880107 -0.000880098 -0.000770144 -0.000770136 -0.000880098 -0.00088009 -0.000660197 -0.000660191 -0.000770136 -0.000770129 -0.000660191 -0.000660185 -0.000770129 -0.000770123 -0.000770136 -0.000770129 -0.00088009 -0.000880084 -0.000770129 -0.000770123 -0.000880084 -0.000880078 -0.000880107 -0.000880098 -0.000990069 -0.00099006 -0.000880098 -0.00088009 -0.00099006 -0.000990052 -0.000990069 -0.00099006 -0.00110004 -0.00110003 -0.00099006 -0.000990052 -0.00110003 -0.00110002 -0.00088009 -0.000880084 -0.000990052 -0.000990046 -0.000880084 -0.000880078 -0.000990046 -0.00099004 -0.000990052 -0.000990046 -0.00110002 -0.00110002 -0.000990046 -0.00099004 -0.00110002 -0.00110001 -0.0011001 -0.00110008 -0.00121008 -0.00121006 -0.00110008 -0.00110006 -0.00121006 -0.00121004 -0.00121008 -0.00121006 -0.00132006 -0.00132004 -0.00121006 -0.00121004 -0.00132004 -0.00132002 -0.00110006 -0.00110005 -0.00121004 -0.00121003 -0.00110005 -0.00110004 -0.00121003 -0.00121002 -0.00121004 -0.00121003 -0.00132002 -0.00132001 -0.00121003 -0.00121002 -0.00132001 -0.00132 -0.00132006 -0.00132004 -0.00143005 -0.00143002 -0.00132004 -0.00132002 -0.00143002 -0.00143001 -0.00143005 -0.00143002 -0.00154 -0.00154 -0.00143002 -0.00143001 -0.00154 -0.00154 -0.00132002 -0.00132001 -0.00143001 -0.00143 -0.00132001 -0.00132 -0.00143 -0.00143 -0.00143001 -0.00143 -0.00154 -0.00154 -0.00143 -0.00143 -0.00154 -0.00154 -0.00110004 -0.00110003 -0.00121002 -0.00121001 -0.00110003 -0.00110002 -0.00121001 -0.00121 -0.00121002 -0.00121001 -0.00132 -0.00132 -0.00121001 -0.00121 -0.00132 -0.00131999 -0.00110002 -0.00110002 -0.00121 -0.00121 -0.00110002 -0.00110001 -0.00121 -0.00120999 -0.00121 -0.00121 -0.00131999 -0.00131999 -0.00121 -0.00120999 -0.00131999 -0.00131999 -0.00132 -0.00132 -0.00143 -0.00142999 -0.00132 -0.00131999 -0.00142999 -0.00142999 -0.00143 -0.00142999 -0.00154 -0.00154 -0.00142999 -0.00142999 -0.00154 -0.00154 -0.00131999 -0.00131999 -0.00142999 -0.00142999 -0.00131999 -0.00131999 -0.00142999 -0.00142999 -0.00142999 -0.00142999 -0.00154 -0.00154 -0.00142999 -0.00142999 -0.00154 -0.00154 -0.000660185 -0.000660179 -0.000770123 -0.000770118 -0.000660179 -0.000660174 -0.000770118 -0.000770113 -0.000770123 -0.000770118 -0.000880078 -0.000880072 -0.000770118 -0.000770113 -0.000880072 -0.000880068 -0.000660174 -0.00066017 -0.000770113 -0.000770108 -0.00066017 -0.000660165 -0.000770108 -0.000770104 -0.000770113 -0.000770108 -0.000880068 -0.000880063 -0.000770108 -0.000770104 -0.000880063 -0.000880059 -0.000880078 -0.000880072 -0.00099004 -0.000990035 -0.000880072 -0.000880068 -0.000990035 -0.000990031 -0.00099004 -0.000990035 -0.00110001 -0.00110001 -0.000990035 -0.000990031 -0.00110001 -0.0011 -0.000880068 -0.000880063 -0.000990031 -0.000990027 -0.000880063 -0.000880059 -0.000990027 -0.000990023 -0.000990031 -0.000990027 -0.0011 -0.0011 -0.000990027 -0.000990023 -0.0011 -0.0011 -0.000660165 -0.000660158 -0.000770104 -0.0007701 -0.000660158 -0.000660151 -0.0007701 -0.000770097 -0.000770104 -0.0007701 -0.000880059 -0.000880055 -0.0007701 -0.000770097 -0.000880055 -0.000880052 -0.000660151 -0.000660143 -0.000770097 -0.000770093 -0.000660143 -0.000660137 -0.000770093 -0.000770088 -0.000770097 -0.000770093 -0.000880052 -0.000880048 -0.000770093 -0.000770088 -0.000880048 -0.000880045 -0.000880059 -0.000880055 -0.000990023 -0.00099002 -0.000880055 -0.000880052 -0.00099002 -0.000990016 -0.000990023 -0.00099002 -0.0011 -0.00109999 -0.00099002 -0.000990016 -0.00109999 -0.00109999 -0.000880052 -0.000880048 -0.000990016 -0.000990012 -0.000880048 -0.000880045 -0.000990012 -0.000990008 -0.000990016 -0.000990012 -0.00109999 -0.00109999 -0.000990012 -0.000990008 -0.00109999 -0.00109999 -0.00110001 -0.00110001 -0.00120999 -0.00120999 -0.00110001 -0.0011 -0.00120999 -0.00120999 -0.00120999 -0.00120999 -0.00131999 -0.00131998 -0.00120999 -0.00120999 -0.00131998 -0.00131998 -0.0011 -0.0011 -0.00120999 -0.00120999 -0.0011 -0.0011 -0.00120999 -0.00120998 -0.00120999 -0.00120999 -0.00131998 -0.00131998 -0.00120999 -0.00120998 -0.00131998 -0.00131998 -0.00131999 -0.00131998 -0.00142999 -0.00142999 -0.00131998 -0.00131998 -0.00142999 -0.00142999 -0.00142999 -0.00142999 -0.00154 -0.00154 -0.00142999 -0.00142999 -0.00154 -0.00154 -0.00131998 -0.00131998 -0.00142999 -0.00142999 -0.00131998 -0.00131998 -0.00142999 -0.00142999 -0.00142999 -0.00142999 -0.00154 -0.00154 -0.00142999 -0.00142999 -0.00154 -0.00154 -0.0011 -0.00109999 -0.00120998 -0.00120998 -0.00109999 -0.00109999 -0.00120998 -0.00120998 -0.00120998 -0.00120998 -0.00131998 -0.00131998 -0.00120998 -0.00120998 -0.00131998 -0.00131998 -0.00109999 -0.00109999 -0.00120998 -0.00120998 -0.00109999 -0.00109999 -0.00120998 -0.00120997 -0.00120998 -0.00120998 -0.00131998 -0.00131997 -0.00120998 -0.00120997 -0.00131997 -0.00131997 -0.00131998 -0.00131998 -0.00142999 -0.00142998 -0.00131998 -0.00131998 -0.00142998 -0.00142998 -0.00142999 -0.00142998 -0.00154 -0.00154 -0.00142998 -0.00142998 -0.00154 -0.00154 -0.00131998 -0.00131997 -0.00142998 -0.00142998 -0.00131997 -0.00131997 -0.00142998 -0.00142998 -0.00142998 -0.00142998 -0.00154 -0.00154 -0.00142998 -0.00142998 -0.00154 -0.00154 9.71054e-06 1.47395e-05 -3.85469e-06 -2.51901e-06 1.47395e-05 1.8223e-05 -2.51901e-06 -1.13849e-06 -3.85469e-06 -2.51901e-06 -5.35032e-05 -5.38227e-05 -2.51901e-06 -1.13849e-06 -5.38227e-05 -5.41506e-05 1.8223e-05 1.962e-05 -1.13849e-06 -3.40468e-07 1.962e-05 1.98492e-05 -3.40468e-07 -2.3709e-07 -1.13849e-06 -3.40468e-07 -5.41506e-05 -5.42413e-05 -3.40468e-07 -2.3709e-07 -5.42413e-05 -5.43194e-05 -5.35032e-05 -5.38227e-05 -0.000131057 -0.000131453 -5.38227e-05 -5.41506e-05 -0.000131453 -0.000131732 -0.000131057 -0.000131453 -0.000226722 -0.000226647 -0.000131453 -0.000131732 -0.000226647 -0.000226535 -5.41506e-05 -5.42413e-05 -0.000131732 -0.000131815 -5.42413e-05 -5.43194e-05 -0.000131815 -0.000131824 -0.000131732 -0.000131815 -0.000226535 -0.000226435 -0.000131815 -0.000131824 -0.000226435 -0.000226407 1.98492e-05 1.96986e-05 -2.3709e-07 -4.66167e-07 1.96986e-05 1.9506e-05 -4.66167e-07 -6.59341e-07 -2.3709e-07 -4.66167e-07 -5.43194e-05 -5.44565e-05 -4.66167e-07 -6.59341e-07 -5.44565e-05 -5.45553e-05 1.9506e-05 1.94066e-05 -6.59341e-07 -7.08687e-07 1.94066e-05 1.94135e-05 -7.08687e-07 -6.81393e-07 -6.59341e-07 -7.08687e-07 -5.45553e-05 -5.45745e-05 -7.08687e-07 -6.81393e-07 -5.45745e-05 -5.45558e-05 -5.43194e-05 -5.44565e-05 -0.000131824 -0.000131862 -5.44565e-05 -5.45553e-05 -0.000131862 -0.000131905 -0.000131824 -0.000131862 -0.000226407 -0.000226436 -0.000131862 -0.000131905 -0.000226436 -0.000226466 -5.45553e-05 -5.45745e-05 -0.000131905 -0.000131917 -5.45745e-05 -5.45558e-05 -0.000131917 -0.000131907 -0.000131905 -0.000131917 -0.000226466 -0.00022647 -0.000131917 -0.000131907 -0.00022647 -0.000226458 -0.000226722 -0.000226647 -0.00033191 -0.000331792 -0.000226647 -0.000226535 -0.000331792 -0.000331693 -0.00033191 -0.000331792 -0.000440651 -0.000440655 -0.000331792 -0.000331693 -0.000440655 -0.000440672 -0.000226535 -0.000226435 -0.000331693 -0.00033166 -0.000226435 -0.000226407 -0.00033166 -0.000331684 -0.000331693 -0.00033166 -0.000440672 -0.000440702 -0.00033166 -0.000331684 -0.000440702 -0.000440725 -0.000440651 -0.000440655 -0.000550266 -0.000550282 -0.000440655 -0.000440672 -0.000550282 -0.000550296 -0.000550266 -0.000550282 -0.000660137 -0.000660132 -0.000550282 -0.000550296 -0.000660132 -0.000660125 -0.000440672 -0.000440702 -0.000550296 -0.000550301 -0.000440702 -0.000440725 -0.000550301 -0.000550294 -0.000550296 -0.000550301 -0.000660125 -0.000660116 -0.000550301 -0.000550294 -0.000660116 -0.000660106 -0.000226407 -0.000226436 -0.000331684 -0.000331717 -0.000226436 -0.000226466 -0.000331717 -0.000331726 -0.000331684 -0.000331717 -0.000440725 -0.000440727 -0.000331717 -0.000331726 -0.000440727 -0.000440715 -0.000226466 -0.00022647 -0.000331726 -0.000331715 -0.00022647 -0.000226458 -0.000331715 -0.000331701 -0.000331726 -0.000331715 -0.000440715 -0.000440701 -0.000331715 -0.000331701 -0.000440701 -0.000440692 -0.000440725 -0.000440727 -0.000550294 -0.00055028 -0.000440727 -0.000440715 -0.00055028 -0.000550268 -0.000550294 -0.00055028 -0.000660106 -0.000660099 -0.00055028 -0.000550268 -0.000660099 -0.000660095 -0.000440715 -0.000440701 -0.000550268 -0.000550261 -0.000440701 -0.000440692 -0.000550261 -0.000550256 -0.000550268 -0.000550261 -0.000660095 -0.000660091 -0.000550261 -0.000550256 -0.000660091 -0.000660086 1.94135e-05 1.94537e-05 -6.81393e-07 -6.50732e-07 1.94537e-05 1.94739e-05 -6.50732e-07 -6.39086e-07 -6.81393e-07 -6.50732e-07 -5.45558e-05 -5.45379e-05 -6.50732e-07 -6.39086e-07 -5.45379e-05 -5.45296e-05 1.94739e-05 1.94755e-05 -6.39086e-07 -6.38834e-07 1.94755e-05 1.94745e-05 -6.38834e-07 -6.39229e-07 -6.39086e-07 -6.38834e-07 -5.45296e-05 -5.45273e-05 -6.38834e-07 -6.39229e-07 -5.45273e-05 -5.45262e-05 -5.45558e-05 -5.45379e-05 -0.000131907 -0.000131893 -5.45379e-05 -5.45296e-05 -0.000131893 -0.000131885 -0.000131907 -0.000131893 -0.000226458 -0.000226445 -0.000131893 -0.000131885 -0.000226445 -0.000226438 -5.45296e-05 -5.45273e-05 -0.000131885 -0.000131882 -5.45273e-05 -5.45262e-05 -0.000131882 -0.00013188 -0.000131885 -0.000131882 -0.000226438 -0.000226435 -0.000131882 -0.00013188 -0.000226435 -0.000226433 1.94745e-05 1.94765e-05 -6.39229e-07 -6.37055e-07 1.94765e-05 1.94799e-05 -6.37055e-07 -6.34158e-07 -6.39229e-07 -6.37055e-07 -5.45262e-05 -5.45242e-05 -6.37055e-07 -6.34158e-07 -5.45242e-05 -5.45217e-05 1.94799e-05 1.94823e-05 -6.34158e-07 -6.32279e-07 1.94823e-05 1.94831e-05 -6.32279e-07 -6.31683e-07 -6.34158e-07 -6.32279e-07 -5.45217e-05 -5.45197e-05 -6.32279e-07 -6.31683e-07 -5.45197e-05 -5.45189e-05 -5.45262e-05 -5.45242e-05 -0.00013188 -0.000131878 -5.45242e-05 -5.45217e-05 -0.000131878 -0.000131875 -0.00013188 -0.000131878 -0.000226433 -0.000226429 -0.000131878 -0.000131875 -0.000226429 -0.000226425 -5.45217e-05 -5.45197e-05 -0.000131875 -0.000131872 -5.45197e-05 -5.45189e-05 -0.000131872 -0.000131871 -0.000131875 -0.000131872 -0.000226425 -0.000226422 -0.000131872 -0.000131871 -0.000226422 -0.000226419 -0.000226458 -0.000226445 -0.000331701 -0.000331692 -0.000226445 -0.000226438 -0.000331692 -0.000331688 -0.000331701 -0.000331692 -0.000440692 -0.000440687 -0.000331692 -0.000331688 -0.000440687 -0.000440683 -0.000226438 -0.000226435 -0.000331688 -0.000331685 -0.000226435 -0.000226433 -0.000331685 -0.000331681 -0.000331688 -0.000331685 -0.000440683 -0.000440678 -0.000331685 -0.000331681 -0.000440678 -0.000440672 -0.000440692 -0.000440687 -0.000550256 -0.000550251 -0.000440687 -0.000440683 -0.000550251 -0.000550246 -0.000550256 -0.000550251 -0.000660086 -0.00066008 -0.000550251 -0.000550246 -0.00066008 -0.000660074 -0.000440683 -0.000440678 -0.000550246 -0.00055024 -0.000440678 -0.000440672 -0.00055024 -0.000550233 -0.000550246 -0.00055024 -0.000660074 -0.000660067 -0.00055024 -0.000550233 -0.000660067 -0.000660059 -0.000226433 -0.000226429 -0.000331681 -0.000331676 -0.000226429 -0.000226425 -0.000331676 -0.000331671 -0.000331681 -0.000331676 -0.000440672 -0.000440666 -0.000331676 -0.000331671 -0.000440666 -0.00044066 -0.000226425 -0.000226422 -0.000331671 -0.000331666 -0.000226422 -0.000226419 -0.000331666 -0.000331662 -0.000331671 -0.000331666 -0.00044066 -0.000440654 -0.000331666 -0.000331662 -0.000440654 -0.000440648 -0.000440672 -0.000440666 -0.000550233 -0.000550226 -0.000440666 -0.00044066 -0.000550226 -0.000550219 -0.000550233 -0.000550226 -0.000660059 -0.000660051 -0.000550226 -0.000550219 -0.000660051 -0.000660042 -0.00044066 -0.000440654 -0.000550219 -0.000550211 -0.000440654 -0.000440648 -0.000550211 -0.000550203 -0.000550219 -0.000550211 -0.000660042 -0.000660033 -0.000550211 -0.000550203 -0.000660033 -0.000660024 -0.000660137 -0.000660132 -0.000770088 -0.000770084 -0.000660132 -0.000660125 -0.000770084 -0.000770079 -0.000770088 -0.000770084 -0.000880045 -0.000880042 -0.000770084 -0.000770079 -0.000880042 -0.000880038 -0.000660125 -0.000660116 -0.000770079 -0.000770075 -0.000660116 -0.000660106 -0.000770075 -0.000770071 -0.000770079 -0.000770075 -0.000880038 -0.000880035 -0.000770075 -0.000770071 -0.000880035 -0.000880031 -0.000880045 -0.000880042 -0.000990008 -0.000990004 -0.000880042 -0.000880038 -0.000990004 -0.00099 -0.000990008 -0.000990004 -0.00109999 -0.00109998 -0.000990004 -0.00099 -0.00109998 -0.00109998 -0.000880038 -0.000880035 -0.00099 -0.000989996 -0.000880035 -0.0008