# vtk DataFile Version 3.0
#This file was generated by the deal.II library on 2022/11/16 at 21:21:53
ASCII
DATASET UNSTRUCTURED_GRID

POINTS 4096 double
0 0.5 0
0.03125 0.5 0
0 0.53125 0
0.03125 0.53125 0
0.03125 0.5 0
0.0625 0.5 0
0.03125 0.53125 0
0.0625 0.53125 0
0 0.53125 0
0.03125 0.53125 0
0 0.5625 0
0.03125 0.5625 0
0.03125 0.53125 0
0.0625 0.53125 0
0.03125 0.5625 0
0.0625 0.5625 0
0.0625 0.5 0
0.09375 0.5 0
0.0625 0.53125 0
0.09375 0.53125 0
0.09375 0.5 0
0.125 0.5 0
0.09375 0.53125 0
0.125 0.53125 0
0.0625 0.53125 0
0.09375 0.53125 0
0.0625 0.5625 0
0.09375 0.5625 0
0.09375 0.53125 0
0.125 0.53125 0
0.09375 0.5625 0
0.125 0.5625 0
0 0.5625 0
0.03125 0.5625 0
0 0.59375 0
0.03125 0.59375 0
0.03125 0.5625 0
0.0625 0.5625 0
0.03125 0.59375 0
0.0625 0.59375 0
0 0.59375 0
0.03125 0.59375 0
0 0.625 0
0.03125 0.625 0
0.03125 0.59375 0
0.0625 0.59375 0
0.03125 0.625 0
0.0625 0.625 0
0.0625 0.5625 0
0.09375 0.5625 0
0.0625 0.59375 0
0.09375 0.59375 0
0.09375 0.5625 0
0.125 0.5625 0
0.09375 0.59375 0
0.125 0.59375 0
0.0625 0.59375 0
0.09375 0.59375 0
0.0625 0.625 0
0.09375 0.625 0
0.09375 0.59375 0
0.125 0.59375 0
0.09375 0.625 0
0.125 0.625 0
0.125 0.5 0
0.15625 0.5 0
0.125 0.53125 0
0.15625 0.53125 0
0.15625 0.5 0
0.1875 0.5 0
0.15625 0.53125 0
0.1875 0.53125 0
0.125 0.53125 0
0.15625 0.53125 0
0.125 0.5625 0
0.15625 0.5625 0
0.15625 0.53125 0
0.1875 0.53125 0
0.15625 0.5625 0
0.1875 0.5625 0
0.1875 0.5 0
0.21875 0.5 0
0.1875 0.53125 0
0.21875 0.53125 0
0.21875 0.5 0
0.25 0.5 0
0.21875 0.53125 0
0.25 0.53125 0
0.1875 0.53125 0
0.21875 0.53125 0
0.1875 0.5625 0
0.21875 0.5625 0
0.21875 0.53125 0
0.25 0.53125 0
0.21875 0.5625 0
0.25 0.5625 0
0.125 0.5625 0
0.15625 0.5625 0
0.125 0.59375 0
0.15625 0.59375 0
0.15625 0.5625 0
0.1875 0.5625 0
0.15625 0.59375 0
0.1875 0.59375 0
0.125 0.59375 0
0.15625 0.59375 0
0.125 0.625 0
0.15625 0.625 0
0.15625 0.59375 0
0.1875 0.59375 0
0.15625 0.625 0
0.1875 0.625 0
0.1875 0.5625 0
0.21875 0.5625 0
0.1875 0.59375 0
0.21875 0.59375 0
0.21875 0.5625 0
0.25 0.5625 0
0.21875 0.59375 0
0.25 0.59375 0
0.1875 0.59375 0
0.21875 0.59375 0
0.1875 0.625 0
0.21875 0.625 0
0.21875 0.59375 0
0.25 0.59375 0
0.21875 0.625 0
0.25 0.625 0
0 0.625 0
0.03125 0.625 0
0 0.65625 0
0.03125 0.65625 0
0.03125 0.625 0
0.0625 0.625 0
0.03125 0.65625 0
0.0625 0.65625 0
0 0.65625 0
0.03125 0.65625 0
0 0.6875 0
0.03125 0.6875 0
0.03125 0.65625 0
0.0625 0.65625 0
0.03125 0.6875 0
0.0625 0.6875 0
0.0625 0.625 0
0.09375 0.625 0
0.0625 0.65625 0
0.09375 0.65625 0
0.09375 0.625 0
0.125 0.625 0
0.09375 0.65625 0
0.125 0.65625 0
0.0625 0.65625 0
0.09375 0.65625 0
0.0625 0.6875 0
0.09375 0.6875 0
0.09375 0.65625 0
0.125 0.65625 0
0.09375 0.6875 0
0.125 0.6875 0
0 0.6875 0
0.03125 0.6875 0
0 0.71875 0
0.03125 0.71875 0
0.03125 0.6875 0
0.0625 0.6875 0
0.03125 0.71875 0
0.0625 0.71875 0
0 0.71875 0
0.03125 0.71875 0
0 0.75 0
0.03125 0.75 0
0.03125 0.71875 0
0.0625 0.71875 0
0.03125 0.75 0
0.0625 0.75 0
0.0625 0.6875 0
0.09375 0.6875 0
0.0625 0.71875 0
0.09375 0.71875 0
0.09375 0.6875 0
0.125 0.6875 0
0.09375 0.71875 0
0.125 0.71875 0
0.0625 0.71875 0
0.09375 0.71875 0
0.0625 0.75 0
0.09375 0.75 0
0.09375 0.71875 0
0.125 0.71875 0
0.09375 0.75 0
0.125 0.75 0
0.125 0.625 0
0.15625 0.625 0
0.125 0.65625 0
0.15625 0.65625 0
0.15625 0.625 0
0.1875 0.625 0
0.15625 0.65625 0
0.1875 0.65625 0
0.125 0.65625 0
0.15625 0.65625 0
0.125 0.6875 0
0.15625 0.6875 0
0.15625 0.65625 0
0.1875 0.65625 0
0.15625 0.6875 0
0.1875 0.6875 0
0.1875 0.625 0
0.21875 0.625 0
0.1875 0.65625 0
0.21875 0.65625 0
0.21875 0.625 0
0.25 0.625 0
0.21875 0.65625 0
0.25 0.65625 0
0.1875 0.65625 0
0.21875 0.65625 0
0.1875 0.6875 0
0.21875 0.6875 0
0.21875 0.65625 0
0.25 0.65625 0
0.21875 0.6875 0
0.25 0.6875 0
0.125 0.6875 0
0.15625 0.6875 0
0.125 0.71875 0
0.15625 0.71875 0
0.15625 0.6875 0
0.1875 0.6875 0
0.15625 0.71875 0
0.1875 0.71875 0
0.125 0.71875 0
0.15625 0.71875 0
0.125 0.75 0
0.15625 0.75 0
0.15625 0.71875 0
0.1875 0.71875 0
0.15625 0.75 0
0.1875 0.75 0
0.1875 0.6875 0
0.21875 0.6875 0
0.1875 0.71875 0
0.21875 0.71875 0
0.21875 0.6875 0
0.25 0.6875 0
0.21875 0.71875 0
0.25 0.71875 0
0.1875 0.71875 0
0.21875 0.71875 0
0.1875 0.75 0
0.21875 0.75 0
0.21875 0.71875 0
0.25 0.71875 0
0.21875 0.75 0
0.25 0.75 0
0.25 0.5 0
0.28125 0.5 0
0.25 0.53125 0
0.28125 0.53125 0
0.28125 0.5 0
0.3125 0.5 0
0.28125 0.53125 0
0.3125 0.53125 0
0.25 0.53125 0
0.28125 0.53125 0
0.25 0.5625 0
0.28125 0.5625 0
0.28125 0.53125 0
0.3125 0.53125 0
0.28125 0.5625 0
0.3125 0.5625 0
0.3125 0.5 0
0.34375 0.5 0
0.3125 0.53125 0
0.34375 0.53125 0
0.34375 0.5 0
0.375 0.5 0
0.34375 0.53125 0
0.375 0.53125 0
0.3125 0.53125 0
0.34375 0.53125 0
0.3125 0.5625 0
0.34375 0.5625 0
0.34375 0.53125 0
0.375 0.53125 0
0.34375 0.5625 0
0.375 0.5625 0
0.25 0.5625 0
0.28125 0.5625 0
0.25 0.59375 0
0.28125 0.59375 0
0.28125 0.5625 0
0.3125 0.5625 0
0.28125 0.59375 0
0.3125 0.59375 0
0.25 0.59375 0
0.28125 0.59375 0
0.25 0.625 0
0.28125 0.625 0
0.28125 0.59375 0
0.3125 0.59375 0
0.28125 0.625 0
0.3125 0.625 0
0.3125 0.5625 0
0.34375 0.5625 0
0.3125 0.59375 0
0.34375 0.59375 0
0.34375 0.5625 0
0.375 0.5625 0
0.34375 0.59375 0
0.375 0.59375 0
0.3125 0.59375 0
0.34375 0.59375 0
0.3125 0.625 0
0.34375 0.625 0
0.34375 0.59375 0
0.375 0.59375 0
0.34375 0.625 0
0.375 0.625 0
0.375 0.5 0
0.40625 0.5 0
0.375 0.53125 0
0.40625 0.53125 0
0.40625 0.5 0
0.4375 0.5 0
0.40625 0.53125 0
0.4375 0.53125 0
0.375 0.53125 0
0.40625 0.53125 0
0.375 0.5625 0
0.40625 0.5625 0
0.40625 0.53125 0
0.4375 0.53125 0
0.40625 0.5625 0
0.4375 0.5625 0
0.4375 0.5 0
0.46875 0.5 0
0.4375 0.53125 0
0.46875 0.53125 0
0.46875 0.5 0
0.5 0.5 0
0.46875 0.53125 0
0.5 0.53125 0
0.4375 0.53125 0
0.46875 0.53125 0
0.4375 0.5625 0
0.46875 0.5625 0
0.46875 0.53125 0
0.5 0.53125 0
0.46875 0.5625 0
0.5 0.5625 0
0.375 0.5625 0
0.40625 0.5625 0
0.375 0.59375 0
0.40625 0.59375 0
0.40625 0.5625 0
0.4375 0.5625 0
0.40625 0.59375 0
0.4375 0.59375 0
0.375 0.59375 0
0.40625 0.59375 0
0.375 0.625 0
0.40625 0.625 0
0.40625 0.59375 0
0.4375 0.59375 0
0.40625 0.625 0
0.4375 0.625 0
0.4375 0.5625 0
0.46875 0.5625 0
0.4375 0.59375 0
0.46875 0.59375 0
0.46875 0.5625 0
0.5 0.5625 0
0.46875 0.59375 0
0.5 0.59375 0
0.4375 0.59375 0
0.46875 0.59375 0
0.4375 0.625 0
0.46875 0.625 0
0.46875 0.59375 0
0.5 0.59375 0
0.46875 0.625 0
0.5 0.625 0
0.25 0.625 0
0.28125 0.625 0
0.25 0.65625 0
0.28125 0.65625 0
0.28125 0.625 0
0.3125 0.625 0
0.28125 0.65625 0
0.3125 0.65625 0
0.25 0.65625 0
0.28125 0.65625 0
0.25 0.6875 0
0.28125 0.6875 0
0.28125 0.65625 0
0.3125 0.65625 0
0.28125 0.6875 0
0.3125 0.6875 0
0.3125 0.625 0
0.34375 0.625 0
0.3125 0.65625 0
0.34375 0.65625 0
0.34375 0.625 0
0.375 0.625 0
0.34375 0.65625 0
0.375 0.65625 0
0.3125 0.65625 0
0.34375 0.65625 0
0.3125 0.6875 0
0.34375 0.6875 0
0.34375 0.65625 0
0.375 0.65625 0
0.34375 0.6875 0
0.375 0.6875 0
0.25 0.6875 0
0.28125 0.6875 0
0.25 0.71875 0
0.28125 0.71875 0
0.28125 0.6875 0
0.3125 0.6875 0
0.28125 0.71875 0
0.3125 0.71875 0
0.25 0.71875 0
0.28125 0.71875 0
0.25 0.75 0
0.28125 0.75 0
0.28125 0.71875 0
0.3125 0.71875 0
0.28125 0.75 0
0.3125 0.75 0
0.3125 0.6875 0
0.34375 0.6875 0
0.3125 0.71875 0
0.34375 0.71875 0
0.34375 0.6875 0
0.375 0.6875 0
0.34375 0.71875 0
0.375 0.71875 0
0.3125 0.71875 0
0.34375 0.71875 0
0.3125 0.75 0
0.34375 0.75 0
0.34375 0.71875 0
0.375 0.71875 0
0.34375 0.75 0
0.375 0.75 0
0.375 0.625 0
0.40625 0.625 0
0.375 0.65625 0
0.40625 0.65625 0
0.40625 0.625 0
0.4375 0.625 0
0.40625 0.65625 0
0.4375 0.65625 0
0.375 0.65625 0
0.40625 0.65625 0
0.375 0.6875 0
0.40625 0.6875 0
0.40625 0.65625 0
0.4375 0.65625 0
0.40625 0.6875 0
0.4375 0.6875 0
0.4375 0.625 0
0.46875 0.625 0
0.4375 0.65625 0
0.46875 0.65625 0
0.46875 0.625 0
0.5 0.625 0
0.46875 0.65625 0
0.5 0.65625 0
0.4375 0.65625 0
0.46875 0.65625 0
0.4375 0.6875 0
0.46875 0.6875 0
0.46875 0.65625 0
0.5 0.65625 0
0.46875 0.6875 0
0.5 0.6875 0
0.375 0.6875 0
0.40625 0.6875 0
0.375 0.71875 0
0.40625 0.71875 0
0.40625 0.6875 0
0.4375 0.6875 0
0.40625 0.71875 0
0.4375 0.71875 0
0.375 0.71875 0
0.40625 0.71875 0
0.375 0.75 0
0.40625 0.75 0
0.40625 0.71875 0
0.4375 0.71875 0
0.40625 0.75 0
0.4375 0.75 0
0.4375 0.6875 0
0.46875 0.6875 0
0.4375 0.71875 0
0.46875 0.71875 0
0.46875 0.6875 0
0.5 0.6875 0
0.46875 0.71875 0
0.5 0.71875 0
0.4375 0.71875 0
0.46875 0.71875 0
0.4375 0.75 0
0.46875 0.75 0
0.46875 0.71875 0
0.5 0.71875 0
0.46875 0.75 0
0.5 0.75 0
0 0.75 0
0.03125 0.75 0
0 0.78125 0
0.03125 0.78125 0
0.03125 0.75 0
0.0625 0.75 0
0.03125 0.78125 0
0.0625 0.78125 0
0 0.78125 0
0.03125 0.78125 0
0 0.8125 0
0.03125 0.8125 0
0.03125 0.78125 0
0.0625 0.78125 0
0.03125 0.8125 0
0.0625 0.8125 0
0.0625 0.75 0
0.09375 0.75 0
0.0625 0.78125 0
0.09375 0.78125 0
0.09375 0.75 0
0.125 0.75 0
0.09375 0.78125 0
0.125 0.78125 0
0.0625 0.78125 0
0.09375 0.78125 0
0.0625 0.8125 0
0.09375 0.8125 0
0.09375 0.78125 0
0.125 0.78125 0
0.09375 0.8125 0
0.125 0.8125 0
0 0.8125 0
0.03125 0.8125 0
0 0.84375 0
0.03125 0.84375 0
0.03125 0.8125 0
0.0625 0.8125 0
0.03125 0.84375 0
0.0625 0.84375 0
0 0.84375 0
0.03125 0.84375 0
0 0.875 0
0.03125 0.875 0
0.03125 0.84375 0
0.0625 0.84375 0
0.03125 0.875 0
0.0625 0.875 0
0.0625 0.8125 0
0.09375 0.8125 0
0.0625 0.84375 0
0.09375 0.84375 0
0.09375 0.8125 0
0.125 0.8125 0
0.09375 0.84375 0
0.125 0.84375 0
0.0625 0.84375 0
0.09375 0.84375 0
0.0625 0.875 0
0.09375 0.875 0
0.09375 0.84375 0
0.125 0.84375 0
0.09375 0.875 0
0.125 0.875 0
0.125 0.75 0
0.15625 0.75 0
0.125 0.78125 0
0.15625 0.78125 0
0.15625 0.75 0
0.1875 0.75 0
0.15625 0.78125 0
0.1875 0.78125 0
0.125 0.78125 0
0.15625 0.78125 0
0.125 0.8125 0
0.15625 0.8125 0
0.15625 0.78125 0
0.1875 0.78125 0
0.15625 0.8125 0
0.1875 0.8125 0
0.1875 0.75 0
0.21875 0.75 0
0.1875 0.78125 0
0.21875 0.78125 0
0.21875 0.75 0
0.25 0.75 0
0.21875 0.78125 0
0.25 0.78125 0
0.1875 0.78125 0
0.21875 0.78125 0
0.1875 0.8125 0
0.21875 0.8125 0
0.21875 0.78125 0
0.25 0.78125 0
0.21875 0.8125 0
0.25 0.8125 0
0.125 0.8125 0
0.15625 0.8125 0
0.125 0.84375 0
0.15625 0.84375 0
0.15625 0.8125 0
[...]
POINT_DATA 4096
SCALARS x_dis double 1
LOOKUP_TABLE default
-3.60141e-09 -3.60139e-09 4.14275e-09 4.14275e-09 -3.60139e-09 -3.60133e-09 4.14275e-09 4.14278e-09 4.14275e-09 4.14275e-09 1.51036e-08 1.51034e-08 4.14275e-09 4.14278e-09 1.51034e-08 1.51027e-08 -3.60133e-09 -3.60126e-09 4.14278e-09 4.14281e-09 -3.60126e-09 -3.6012e-09 4.14281e-09 4.14285e-09 4.14278e-09 4.14281e-09 1.51027e-08 1.5102e-08 4.14281e-09 4.14285e-09 1.5102e-08 1.51013e-08 1.51036e-08 1.51034e-08 -8.21997e-08 -8.22001e-08 1.51034e-08 1.51027e-08 -8.22001e-08 -8.22013e-08 -8.21997e-08 -8.22001e-08 1.23871e-07 1.23873e-07 -8.22001e-08 -8.22013e-08 1.23873e-07 1.23877e-07 1.51027e-08 1.5102e-08 -8.22013e-08 -8.22028e-08 1.5102e-08 1.51013e-08 -8.22028e-08 -8.22045e-08 -8.22013e-08 -8.22028e-08 1.23877e-07 1.23882e-07 -8.22028e-08 -8.22045e-08 1.23882e-07 1.23886e-07 -3.6012e-09 -3.60115e-09 4.14285e-09 4.14287e-09 -3.60115e-09 -3.60113e-09 4.14287e-09 4.14289e-09 4.14285e-09 4.14287e-09 1.51013e-08 1.51008e-08 4.14287e-09 4.14289e-09 1.51008e-08 1.51005e-08 -3.60113e-09 -3.60111e-09 4.14289e-09 4.14291e-09 -3.60111e-09 -3.60111e-09 4.14291e-09 4.14293e-09 4.14289e-09 4.14291e-09 1.51005e-08 1.51004e-08 4.14291e-09 4.14293e-09 1.51004e-08 1.51003e-08 1.51013e-08 1.51008e-08 -8.22045e-08 -8.22057e-08 1.51008e-08 1.51005e-08 -8.22057e-08 -8.22065e-08 -8.22045e-08 -8.22057e-08 1.23886e-07 1.23888e-07 -8.22057e-08 -8.22065e-08 1.23888e-07 1.2389e-07 1.51005e-08 1.51004e-08 -8.22065e-08 -8.2207e-08 1.51004e-08 1.51003e-08 -8.2207e-08 -8.22072e-08 -8.22065e-08 -8.2207e-08 1.2389e-07 1.2389e-07 -8.2207e-08 -8.22072e-08 1.2389e-07 1.23891e-07 1.23871e-07 1.23873e-07 2.91526e-07 2.91536e-07 1.23873e-07 1.23877e-07 2.91536e-07 2.91561e-07 2.91526e-07 2.91536e-07 -1.46973e-06 -1.4697e-06 2.91536e-07 2.91561e-07 -1.4697e-06 -1.46962e-06 1.23877e-07 1.23882e-07 2.91561e-07 2.91595e-07 1.23882e-07 1.23886e-07 2.91595e-07 2.91629e-07 2.91561e-07 2.91595e-07 -1.46962e-06 -1.46952e-06 2.91595e-07 2.91629e-07 -1.46952e-06 -1.4694e-06 -1.46973e-06 -1.4697e-06 2.56238e-07 2.56314e-07 -1.4697e-06 -1.46962e-06 2.56314e-07 2.56518e-07 2.56238e-07 2.56314e-07 9.07472e-06 9.0749e-06 2.56314e-07 2.56518e-07 9.0749e-06 9.07536e-06 -1.46962e-06 -1.46952e-06 2.56518e-07 2.56789e-07 -1.46952e-06 -1.4694e-06 2.56789e-07 2.57065e-07 2.56518e-07 2.56789e-07 9.07536e-06 9.07595e-06 2.56789e-07 2.57065e-07 9.07595e-06 9.07653e-06 1.23886e-07 1.23888e-07 2.91629e-07 2.91656e-07 1.23888e-07 1.2389e-07 2.91656e-07 2.91673e-07 2.91629e-07 2.91656e-07 -1.4694e-06 -1.46931e-06 2.91656e-07 2.91673e-07 -1.46931e-06 -1.46924e-06 1.2389e-07 1.2389e-07 2.91673e-07 2.91682e-07 1.2389e-07 1.23891e-07 2.91682e-07 2.91687e-07 2.91673e-07 2.91682e-07 -1.46924e-06 -1.4692e-06 2.91682e-07 2.91687e-07 -1.4692e-06 -1.46918e-06 -1.4694e-06 -1.46931e-06 2.57065e-07 2.57301e-07 -1.46931e-06 -1.46924e-06 2.57301e-07 2.57477e-07 2.57065e-07 2.57301e-07 9.07653e-06 9.07701e-06 2.57301e-07 2.57477e-07 9.07701e-06 9.07737e-06 -1.46924e-06 -1.4692e-06 2.57477e-07 2.57589e-07 -1.4692e-06 -1.46918e-06 2.57589e-07 2.57647e-07 2.57477e-07 2.57589e-07 9.07737e-06 9.07761e-06 2.57589e-07 2.57647e-07 9.07761e-06 9.07774e-06 -3.60111e-09 -3.60111e-09 4.14293e-09 4.14288e-09 -3.60111e-09 -3.60112e-09 4.14288e-09 4.14282e-09 4.14293e-09 4.14288e-09 1.51003e-08 1.51003e-08 4.14288e-09 4.14282e-09 1.51003e-08 1.51003e-08 -3.60112e-09 -3.6011e-09 4.14282e-09 4.14351e-09 -3.6011e-09 -3.60105e-09 4.14351e-09 4.14333e-09 4.14282e-09 4.14351e-09 1.51003e-08 1.51007e-08 4.14351e-09 4.14333e-09 1.51007e-08 1.51003e-08 1.51003e-08 1.51003e-08 -8.22072e-08 -8.22073e-08 1.51003e-08 1.51003e-08 -8.22073e-08 -8.22073e-08 -8.22072e-08 -8.22073e-08 1.23891e-07 1.23891e-07 -8.22073e-08 -8.22073e-08 1.23891e-07 1.2389e-07 1.51003e-08 1.51007e-08 -8.22073e-08 -8.2207e-08 1.51007e-08 1.51003e-08 -8.2207e-08 -8.22072e-08 -8.22073e-08 -8.2207e-08 1.2389e-07 1.23891e-07 -8.2207e-08 -8.22072e-08 1.23891e-07 1.23891e-07 -3.60105e-09 -3.60125e-09 4.14333e-09 4.13659e-09 -3.60125e-09 -3.6012e-09 4.13659e-09 4.13989e-09 4.14333e-09 4.13659e-09 1.51003e-08 1.50975e-08 4.13659e-09 4.13989e-09 1.50975e-08 1.51026e-08 -3.6012e-09 -3.60052e-09 4.13989e-09 4.20759e-09 -3.60052e-09 -3.6014e-09 4.20759e-09 4.24227e-09 4.13989e-09 4.20759e-09 1.51026e-08 1.50889e-08 4.20759e-09 4.24227e-09 1.50889e-08 1.51311e-08 1.51003e-08 1.50975e-08 -8.22072e-08 -8.22088e-08 1.50975e-08 1.51026e-08 -8.22088e-08 -8.22089e-08 -8.22072e-08 -8.22088e-08 1.23891e-07 1.23891e-07 -8.22088e-08 -8.22089e-08 1.23891e-07 1.23888e-07 1.51026e-08 1.50889e-08 -8.22089e-08 -8.21975e-08 1.50889e-08 1.51311e-08 -8.21975e-08 -8.22337e-08 -8.22089e-08 -8.21975e-08 1.23888e-07 1.23885e-07 -8.21975e-08 -8.22337e-08 1.23885e-07 1.23901e-07 1.23891e-07 1.23891e-07 2.91687e-07 2.91688e-07 1.23891e-07 1.2389e-07 2.91688e-07 2.91689e-07 2.91687e-07 2.91688e-07 -1.46918e-06 -1.46917e-06 2.91688e-07 2.91689e-07 -1.46917e-06 -1.46917e-06 1.2389e-07 1.23891e-07 2.91689e-07 2.91689e-07 1.23891e-07 1.23891e-07 2.91689e-07 2.91689e-07 2.91689e-07 2.91689e-07 -1.46917e-06 -1.46917e-06 2.91689e-07 2.91689e-07 -1.46917e-06 -1.46917e-06 -1.46918e-06 -1.46917e-06 2.57647e-07 2.57671e-07 -1.46917e-06 -1.46917e-06 2.57671e-07 2.57679e-07 2.57647e-07 2.57671e-07 9.07774e-06 9.0778e-06 2.57671e-07 2.57679e-07 9.0778e-06 9.07782e-06 -1.46917e-06 -1.46917e-06 2.57679e-07 2.57681e-07 -1.46917e-06 -1.46917e-06 2.57681e-07 2.57681e-07 2.57679e-07 2.57681e-07 9.07782e-06 9.07783e-06 2.57681e-07 2.57681e-07 9.07783e-06 9.07783e-06 1.23891e-07 1.23891e-07 2.91689e-07 2.91689e-07 1.23891e-07 1.23888e-07 2.91689e-07 2.91689e-07 2.91689e-07 2.91689e-07 -1.46917e-06 -1.46917e-06 2.91689e-07 2.91689e-07 -1.46917e-06 -1.46917e-06 1.23888e-07 1.23885e-07 2.91689e-07 2.91688e-07 1.23885e-07 1.23901e-07 2.91688e-07 2.91685e-07 2.91689e-07 2.91688e-07 -1.46917e-06 -1.46917e-06 2.91688e-07 2.91685e-07 -1.46917e-06 -1.46917e-06 -1.46917e-06 -1.46917e-06 2.57681e-07 2.57681e-07 -1.46917e-06 -1.46917e-06 2.57681e-07 2.57681e-07 2.57681e-07 2.57681e-07 9.07783e-06 9.07783e-06 2.57681e-07 2.57681e-07 9.07783e-06 9.07783e-06 -1.46917e-06 -1.46917e-06 2.57681e-07 2.5768e-07 -1.46917e-06 -1.46917e-06 2.5768e-07 2.57681e-07 2.57681e-07 2.5768e-07 9.07783e-06 9.07783e-06 2.5768e-07 2.57681e-07 9.07783e-06 9.07783e-06 9.07472e-06 9.0749e-06 -8.90983e-07 -8.90629e-07 9.0749e-06 9.07536e-06 -8.90629e-07 -8.89729e-07 -8.90983e-07 -8.90629e-07 -5.59333e-05 -5.59324e-05 -8.90629e-07 -8.89729e-07 -5.59324e-05 -5.59307e-05 9.07536e-06 9.07595e-06 -8.89729e-07 -8.88617e-07 9.07595e-06 9.07653e-06 -8.88617e-07 -8.87545e-07 -8.89729e-07 -8.88617e-07 -5.59307e-05 -5.59288e-05 -8.88617e-07 -8.87545e-07 -5.59288e-05 -5.59271e-05 -5.59333e-05 -5.59324e-05 -0.000145904 -0.000145902 -5.59324e-05 -5.59307e-05 -0.000145902 -0.000145898 -0.000145904 -0.000145902 -0.00025099 -0.000250985 -0.000145902 -0.000145898 -0.000250985 -0.00025098 -5.59307e-05 -5.59288e-05 -0.000145898 -0.000145896 -5.59288e-05 -5.59271e-05 -0.000145896 -0.000145893 -0.000145898 -0.000145896 -0.00025098 -0.000250976 -0.000145896 -0.000145893 -0.000250976 -0.000250973 9.07653e-06 9.07701e-06 -8.87545e-07 -8.86666e-07 9.07701e-06 9.07737e-06 -8.86666e-07 -8.86033e-07 -8.87545e-07 -8.86666e-07 -5.59271e-05 -5.59257e-05 -8.86666e-07 -8.86033e-07 -5.59257e-05 -5.59247e-05 9.07737e-06 9.07761e-06 -8.86033e-07 -8.85619e-07 9.07761e-06 9.07774e-06 -8.85619e-07 -8.85375e-07 -8.86033e-07 -8.85619e-07 -5.59247e-05 -5.5924e-05 -8.85619e-07 -8.85375e-07 -5.5924e-05 -5.59236e-05 -5.59271e-05 -5.59257e-05 -0.000145893 -0.000145891 -5.59257e-05 -5.59247e-05 -0.000145891 -0.00014589 -0.000145893 -0.000145891 -0.000250973 -0.000250971 -0.000145891 -0.00014589 -0.000250971 -0.000250969 -5.59247e-05 -5.5924e-05 -0.00014589 -0.000145889 -5.5924e-05 -5.59236e-05 -0.000145889 -0.000145888 -0.00014589 -0.000145889 -0.000250969 -0.000250968 -0.000145889 -0.000145888 -0.000250968 -0.000250967 -0.00025099 -0.000250985 -0.000360212 -0.000360204 -0.000250985 -0.00025098 -0.000360204 -0.000360198 -0.000360212 -0.000360204 -0.000470062 -0.000470052 -0.000360204 -0.000360198 -0.000470052 -0.000470045 -0.00025098 -0.000250976 -0.000360198 -0.000360193 -0.000250976 -0.000250973 -0.000360193 -0.000360189 -0.000360198 -0.000360193 -0.000470045 -0.00047004 -0.000360193 -0.000360189 -0.00047004 -0.000470036 -0.000470062 -0.000470052 -0.000580051 -0.000580038 -0.000470052 -0.000470045 -0.000580038 -0.000580032 -0.000580051 -0.000580038 -0.00069 -0.00069 -0.000580038 -0.000580032 -0.00069 -0.00069 -0.000470045 -0.00047004 -0.000580032 -0.000580029 -0.00047004 -0.000470036 -0.000580029 -0.000580027 -0.000580032 -0.000580029 -0.00069 -0.00069 -0.000580029 -0.000580027 -0.00069 -0.00069 -0.000250973 -0.000250971 -0.000360189 -0.000360187 -0.000250971 -0.000250969 -0.000360187 -0.000360185 -0.000360189 -0.000360187 -0.000470036 -0.000470034 -0.000360187 -0.000360185 -0.000470034 -0.000470033 -0.000250969 -0.000250968 -0.000360185 -0.000360184 -0.000250968 -0.000250967 -0.000360184 -0.000360183 -0.000360185 -0.000360184 -0.000470033 -0.000470032 -0.000360184 -0.000360183 -0.000470032 -0.000470031 -0.000470036 -0.000470034 -0.000580027 -0.000580026 -0.000470034 -0.000470033 -0.000580026 -0.000580025 -0.000580027 -0.000580026 -0.00069 -0.00069 -0.000580026 -0.000580025 -0.00069 -0.00069 -0.000470033 -0.000470032 -0.000580025 -0.000580024 -0.000470032 -0.000470031 -0.000580024 -0.000580024 -0.000580025 -0.000580024 -0.00069 -0.00069 -0.000580024 -0.000580024 -0.00069 -0.00069 9.07774e-06 9.0778e-06 -8.85375e-07 -8.85252e-07 9.0778e-06 9.07782e-06 -8.85252e-07 -8.85206e-07 -8.85375e-07 -8.85252e-07 -5.59236e-05 -5.59234e-05 -8.85252e-07 -8.85206e-07 -5.59234e-05 -5.59233e-05 9.07782e-06 9.07783e-06 -8.85206e-07 -8.85194e-07 9.07783e-06 9.07783e-06 -8.85194e-07 -8.85192e-07 -8.85206e-07 -8.85194e-07 -5.59233e-05 -5.59233e-05 -8.85194e-07 -8.85192e-07 -5.59233e-05 -5.59233e-05 -5.59236e-05 -5.59234e-05 -0.000145888 -0.000145888 -5.59234e-05 -5.59233e-05 -0.000145888 -0.000145888 -0.000145888 -0.000145888 -0.000250967 -0.000250967 -0.000145888 -0.000145888 -0.000250967 -0.000250967 -5.59233e-05 -5.59233e-05 -0.000145888 -0.000145888 -5.59233e-05 -5.59233e-05 -0.000145888 -0.000145888 -0.000145888 -0.000145888 -0.000250967 -0.000250967 -0.000145888 -0.000145888 -0.000250967 -0.000250967 9.07783e-06 9.07783e-06 -8.85192e-07 -8.85193e-07 9.07783e-06 9.07783e-06 -8.85193e-07 -8.85193e-07 -8.85192e-07 -8.85193e-07 -5.59233e-05 -5.59233e-05 -8.85193e-07 -8.85193e-07 -5.59233e-05 -5.59233e-05 9.07783e-06 9.07783e-06 -8.85193e-07 -8.85193e-07 9.07783e-06 9.07783e-06 -8.85193e-07 -8.85193e-07 -8.85193e-07 -8.85193e-07 -5.59233e-05 -5.59233e-05 -8.85193e-07 -8.85193e-07 -5.59233e-05 -5.59233e-05 -5.59233e-05 -5.59233e-05 -0.000145888 -0.000145888 -5.59233e-05 -5.59233e-05 -0.000145888 -0.000145888 -0.000145888 -0.000145888 -0.000250967 -0.000250967 -0.000145888 -0.000145888 -0.000250967 -0.000250967 -5.59233e-05 -5.59233e-05 -0.000145888 -0.000145888 -5.59233e-05 -5.59233e-05 -0.000145888 -0.000145888 -0.000145888 -0.000145888 -0.000250967 -0.000250967 -0.000145888 -0.000145888 -0.000250967 -0.000250967 -0.000250967 -0.000250967 -0.000360183 -0.000360182 -0.000250967 -0.000250967 -0.000360182 -0.000360182 -0.000360183 -0.000360182 -0.000470031 -0.000470031 -0.000360182 -0.000360182 -0.000470031 -0.000470031 -0.000250967 -0.000250967 -0.000360182 -0.000360182 -0.000250967 -0.000250967 -0.000360182 -0.000360182 -0.000360182 -0.000360182 -0.000470031 -0.000470031 -0.000360182 -0.000360182 -0.000470031 -0.000470031 -0.000470031 -0.000470031 -0.000580024 -0.000580024 -0.000470031 -0.000470031 -0.000580024 -0.000580023 -0.000580024 -0.000580024 -0.00069 -0.00069 -0.000580024 -0.000580023 -0.00069 -0.00069 -0.000470031 -0.000470031 -0.000580023 -0.000580023 -0.000470031 -0.000470031 -0.000580023 -0.000580023 -0.000580023 -0.000580023 -0.00069 -0.00069 -0.000580023 -0.000580023 -0.00069 -0.00069 -0.000250967 -0.000250967 -0.000360182 -0.000360182 -0.000250967 -0.000250967 -0.000360182 -0.000360182 -0.000360182 -0.000360182 -0.000470031 -0.000470031 -0.000360182 -0.000360182 -0.000470031 -0.000470031 -0.000250967 -0.000250967 -0.000360182 -0.000360182 -0.000250967 -0.000250967 -0.000360182 -0.000360182 -0.000360182 -0.000360182 -0.000470031 -0.000470031 -0.000360182 -0.000360182 -0.000470031 -0.000470031 -0.000470031 -0.000470031 -0.000580023 -0.000580023 -0.000470031 -0.000470031 -0.000580023 -0.000580023 -0.000580023 -0.000580023 -0.00069 -0.00069 -0.000580023 -0.000580023 -0.00069 -0.00069 -0.000470031 -0.000470031 -0.000580023 -0.000580023 -0.000470031 -0.000470031 -0.000580023 -0.000580023 -0.000580023 -0.000580023 -0.00069 -0.00069 -0.000580023 -0.000580023 -0.00069 -0.00069 -3.6014e-09 -7.29932e-09 4.24227e-09 4.979e-09 -7.29932e-09 -7.57042e-09 4.979e-09 5.19315e-09 4.24227e-09 4.979e-09 1.51311e-08 1.50712e-08 4.979e-09 5.19315e-09 1.50712e-08 1.50301e-08 -7.57042e-09 -7.19378e-09 5.19315e-09 5.28809e-09 -7.19378e-09 -7.16135e-09 5.28809e-09 5.27996e-09 5.19315e-09 5.28809e-09 1.50301e-08 1.49925e-08 5.28809e-09 5.27996e-09 1.49925e-08 1.5001e-08 1.51311e-08 1.50712e-08 -8.22337e-08 -8.22897e-08 1.50712e-08 1.50301e-08 -8.22897e-08 -8.23052e-08 -8.22337e-08 -8.22897e-08 1.23901e-07 1.2393e-07 -8.22897e-08 -8.23052e-08 1.2393e-07 1.23948e-07 1.50301e-08 1.49925e-08 -8.23052e-08 -8.2281e-08 1.49925e-08 1.5001e-08 -8.2281e-08 -8.22798e-08 -8.23052e-08 -8.2281e-08 1.23948e-07 1.23943e-07 -8.2281e-08 -8.22798e-08 1.23943e-07 1.23937e-07 -7.16135e-09 -7.20405e-09 5.27996e-09 5.25489e-09 -7.20405e-09 -7.20741e-09 5.25489e-09 5.25646e-09 5.27996e-09 5.25489e-09 1.5001e-08 1.50006e-08 5.25489e-09 5.25646e-09 1.50006e-08 1.49986e-08 -7.20741e-09 -7.20164e-09 5.25646e-09 5.2603e-09 -7.20164e-09 -7.20157e-09 5.2603e-09 5.25966e-09 5.25646e-09 5.2603e-09 1.49986e-08 1.49994e-08 5.2603e-09 5.25966e-09 1.49994e-08 1.49997e-08 1.5001e-08 1.50006e-08 -8.22798e-08 -8.22849e-08 1.50006e-08 1.49986e-08 -8.22849e-08 -8.22851e-08 -8.22798e-08 -8.22849e-08 1.23937e-07 1.23937e-07 -8.22849e-08 -8.22851e-08 1.23937e-07 1.23939e-07 1.49986e-08 1.49994e-08 -8.22851e-08 -8.22841e-08 1.49994e-08 1.49997e-08 -8.22841e-08 -8.22842e-08 -8.22851e-08 -8.22841e-08 1.23939e-07 1.23938e-07 -8.22841e-08 -8.22842e-08 1.23938e-07 1.23938e-07 1.23901e-07 1.2393e-07 2.91685e-07 2.9168e-07 1.2393e-07 1.23948e-07 2.9168e-07 2.91674e-07 2.91685e-07 2.9168e-07 -1.46917e-06 -1.46917e-06 2.9168e-07 2.91674e-07 -1.46917e-06 -1.46917e-06 1.23948e-07 1.23943e-07 2.91674e-07 2.91671e-07 1.23943e-07 1.23937e-07 2.91671e-07 2.91673e-07 2.91674e-07 2.91671e-07 -1.46917e-06 -1.46917e-06 2.91671e-07 2.91673e-07 -1.46917e-06 -1.46917e-06 -1.46917e-06 -1.46917e-06 2.57681e-07 2.57682e-07 -1.46917e-06 -1.46917e-06 2.57682e-07 2.57682e-07 2.57681e-07 2.57682e-07 9.07783e-06 9.07783e-06 2.57682e-07 2.57682e-07 9.07783e-06 9.07783e-06 -1.46917e-06 -1.46917e-06 2.57682e-07 2.57682e-07 -1.46917e-06 -1.46917e-06 2.57682e-07 2.57681e-07 2.57682e-07 2.57682e-07 9.07783e-06 9.07783e-06 2.57682e-07 2.57681e-07 9.07783e-06 9.07783e-06 1.23937e-07 1.23937e-07 2.91673e-07 2.91674e-07 1.23937e-07 1.23939e-07 2.91674e-07 2.91674e-07 2.91673e-07 2.91674e-07 -1.46917e-06 -1.46917e-06 2.91674e-07 2.91674e-07 -1.46917e-06 -1.46917e-06 1.23939e-07 1.23938e-07 2.91674e-07 2.91674e-07 1.23938e-07 1.23938e-07 2.91674e-07 2.91676e-07 2.91674e-07 2.91674e-07 -1.46917e-06 -1.46916e-06 2.91674e-07 2.91676e-07 -1.46916e-06 -1.46916e-06 -1.46917e-06 -1.46917e-06 2.57681e-07 2.57681e-07 -1.46917e-06 -1.46917e-06 2.57681e-07 2.57683e-07 2.57681e-07 2.57681e-07 9.07783e-06 9.07783e-06 2.57681e-07 2.57683e-07 9.07783e-06 9.07783e-06 -1.46917e-06 -1.46916e-06 2.57683e-07 2.57691e-07 -1.46916e-06 -1.46916e-06 2.57691e-07 2.57715e-07 2.57683e-07 2.57691e-07 9.07783e-06 9.07785e-06 2.57691e-07 2.57715e-07 9.07785e-06 9.07791e-06 -7.20157e-09 -7.20238e-09 5.25966e-09 5.25927e-09 -7.20238e-09 -7.20224e-09 5.25927e-09 5.25941e-09 5.25966e-09 5.25927e-09 1.49997e-08 1.49995e-08 5.25927e-09 5.25941e-09 1.49995e-08 1.49993e-08 -7.20224e-09 -7.2021e-09 5.25941e-09 5.25945e-09 -7.2021e-09 -7.20205e-09 5.25945e-09 5.25943e-09 5.25941e-09 5.25945e-09 1.49993e-08 1.4999e-08 5.25945e-09 5.25943e-09 1.4999e-08 1.49985e-08 1.49997e-08 1.49995e-08 -8.22842e-08 -8.22846e-08 1.49995e-08 1.49993e-08 -8.22846e-08 -8.22851e-08 -8.22842e-08 -8.22846e-08 1.23938e-07 1.23939e-07 -8.22846e-08 -8.22851e-08 1.23939e-07 1.23939e-07 1.49993e-08 1.4999e-08 -8.22851e-08 -8.22858e-08 1.4999e-08 1.49985e-08 -8.22858e-08 -8.22871e-08 -8.22851e-08 -8.22858e-08 1.23939e-07 1.23941e-07 -8.22858e-08 -8.22871e-08 1.23941e-07 1.23943e-07 -7.20205e-09 -7.20193e-09 5.25943e-09 5.25944e-09 -7.20193e-09 -7.20179e-09 5.25944e-09 5.25945e-09 5.25943e-09 5.25944e-09 1.49985e-08 1.49979e-08 5.25944e-09 5.25945e-09 1.49979e-08 1.49971e-08 -7.20179e-09 -7.20168e-09 5.25945e-09 5.25945e-09 -7.20168e-09 -7.20164e-09 5.25945e-09 5.25945e-09 5.25945e-09 5.25945e-09 1.49971e-08 1.49965e-08 5.25945e-09 5.25945e-09 1.49965e-08 1.49963e-08 1.49985e-08 1.49979e-08 -8.22871e-08 -8.22887e-08 1.49979e-08 1.49971e-08 -8.22887e-08 -8.22903e-08 -8.22871e-08 -8.22887e-08 1.23943e-07 1.23947e-07 -8.22887e-08 -8.22903e-08 1.23947e-07 1.23952e-07 1.49971e-08 1.49965e-08 -8.22903e-08 -8.22915e-08 1.49965e-08 1.49963e-08 -8.22915e-08 -8.22919e-08 -8.22903e-08 -8.22915e-08 1.23952e-07 1.23956e-07 -8.22915e-08 -8.22919e-08 1.23956e-07 1.23957e-07 1.23938e-07 1.23939e-07 2.91676e-07 2.9168e-07 1.23939e-07 1.23939e-07 2.9168e-07 2.91689e-07 2.91676e-07 2.9168e-07 -1.46916e-06 -1.46914e-06 2.9168e-07 2.91689e-07 -1.46914e-06 -1.4691e-06 1.23939e-07 1.23941e-07 2.91689e-07 2.91706e-07 1.23941e-07 1.23943e-07 2.91706e-07 2.91733e-07 2.91689e-07 2.91706e-07 -1.4691e-06 -1.46903e-06 2.91706e-07 2.91733e-07 -1.46903e-06 -1.46893e-06 -1.46916e-06 -1.46914e-06 2.57715e-07 2.57773e-07 -1.46914e-06 -1.4691e-06 2.57773e-07 2.57885e-07 2.57715e-07 2.57773e-07 9.07791e-06 9.07805e-06 2.57773e-07 2.57885e-07 9.07805e-06 9.07829e-06 -1.4691e-06 -1.46903e-06 2.57885e-07 2.58061e-07 -1.46903e-06 -1.46893e-06 2.58061e-07 2.58297e-07 2.57885e-07 2.58061e-07 9.07829e-06 9.07864e-06 2.58061e-07 2.58297e-07 9.07864e-06 9.07913e-06 1.23943e-07 1.23947e-07 2.91733e-07 2.91767e-07 1.23947e-07 1.23952e-07 2.91767e-07 2.91802e-07 2.91733e-07 2.91767e-07 -1.46893e-06 -1.46882e-06 2.91767e-07 2.91802e-07 -1.46882e-06 -1.46871e-06 1.23952e-07 1.23956e-07 2.91802e-07 2.91827e-07 1.23956e-07 1.23957e-07 2.91827e-07 2.91836e-07 2.91802e-07 2.91827e-07 -1.46871e-06 -1.46863e-06 2.91827e-07 2.91836e-07 -1.46863e-06 -1.4686e-06 -1.46893e-06 -1.46882e-06 2.58297e-07 2.58573e-07 -1.46882e-06 -1.46871e-06 2.58573e-07 2.58844e-07 2.58297e-07 2.58573e-07 9.07913e-06 9.07971e-06 2.58573e-07 2.58844e-07 9.07971e-06 9.0803e-06 -1.46871e-06 -1.46863e-06 2.58844e-07 2.59048e-07 -1.46863e-06 -1.4686e-06 2.59048e-07 2.59125e-07 2.58844e-07 2.59048e-07 9.0803e-06 9.08076e-06 2.59048e-07 2.59125e-07 9.08076e-06 9.08093e-06 9.07783e-06 9.07783e-06 -8.85193e-07 -8.85193e-07 9.07783e-06 9.07783e-06 -8.85193e-07 -8.85193e-07 -8.85193e-07 -8.85193e-07 -5.59233e-05 -5.59233e-05 -8.85193e-07 -8.85193e-07 -5.59233e-05 -5.59233e-05 9.07783e-06 9.07783e-06 -8.85193e-07 -8.85193e-07 9.07783e-06 9.07783e-06 -8.85193e-07 -8.85193e-07 -8.85193e-07 -8.85193e-07 -5.59233e-05 -5.59233e-05 -8.85193e-07 -8.85193e-07 -5.59233e-05 -5.59233e-05 -5.59233e-05 -5.59233e-05 -0.000145888 -0.000145888 -5.59233e-05 -5.59233e-05 -0.000145888 -0.000145888 -0.000145888 -0.000145888 -0.000250967 -0.000250967 -0.000145888 -0.000145888 -0.000250967 -0.000250967 -5.59233e-05 -5.59233e-05 -0.000145888 -0.000145888 -5.59233e-05 -5.59233e-05 -0.000145888 -0.000145888 -0.000145888 -0.000145888 -0.000250967 -0.000250967 -0.000145888 -0.000145888 -0.000250967 -0.000250967 9.07783e-06 9.07783e-06 -8.85193e-07 -8.85192e-07 9.07783e-06 9.07783e-06 -8.85192e-07 -8.8518e-07 -8.85193e-07 -8.85192e-07 -5.5923