# vtk DataFile Version 3.0
#This file was generated by the deal.II library on 2022/11/16 at 21:30:04
ASCII
DATASET UNSTRUCTURED_GRID

POINTS 4096 double
0 0.5 0
0.03125 0.5 0
0 0.53125 0
0.03125 0.53125 0
0.03125 0.5 0
0.0625 0.5 0
0.03125 0.53125 0
0.0625 0.53125 0
0 0.53125 0
0.03125 0.53125 0
0 0.5625 0
0.03125 0.5625 0
0.03125 0.53125 0
0.0625 0.53125 0
0.03125 0.5625 0
0.0625 0.5625 0
0.0625 0.5 0
0.09375 0.5 0
0.0625 0.53125 0
0.09375 0.53125 0
0.09375 0.5 0
0.125 0.5 0
0.09375 0.53125 0
0.125 0.53125 0
0.0625 0.53125 0
0.09375 0.53125 0
0.0625 0.5625 0
0.09375 0.5625 0
0.09375 0.53125 0
0.125 0.53125 0
0.09375 0.5625 0
0.125 0.5625 0
0 0.5625 0
0.03125 0.5625 0
0 0.59375 0
0.03125 0.59375 0
0.03125 0.5625 0
0.0625 0.5625 0
0.03125 0.59375 0
0.0625 0.59375 0
0 0.59375 0
0.03125 0.59375 0
0 0.625 0
0.03125 0.625 0
0.03125 0.59375 0
0.0625 0.59375 0
0.03125 0.625 0
0.0625 0.625 0
0.0625 0.5625 0
0.09375 0.5625 0
0.0625 0.59375 0
0.09375 0.59375 0
0.09375 0.5625 0
0.125 0.5625 0
0.09375 0.59375 0
0.125 0.59375 0
0.0625 0.59375 0
0.09375 0.59375 0
0.0625 0.625 0
0.09375 0.625 0
0.09375 0.59375 0
0.125 0.59375 0
0.09375 0.625 0
0.125 0.625 0
0.125 0.5 0
0.15625 0.5 0
0.125 0.53125 0
0.15625 0.53125 0
0.15625 0.5 0
0.1875 0.5 0
0.15625 0.53125 0
0.1875 0.53125 0
0.125 0.53125 0
0.15625 0.53125 0
0.125 0.5625 0
0.15625 0.5625 0
0.15625 0.53125 0
0.1875 0.53125 0
0.15625 0.5625 0
0.1875 0.5625 0
0.1875 0.5 0
0.21875 0.5 0
0.1875 0.53125 0
0.21875 0.53125 0
0.21875 0.5 0
0.25 0.5 0
0.21875 0.53125 0
0.25 0.53125 0
0.1875 0.53125 0
0.21875 0.53125 0
0.1875 0.5625 0
0.21875 0.5625 0
0.21875 0.53125 0
0.25 0.53125 0
0.21875 0.5625 0
0.25 0.5625 0
0.125 0.5625 0
0.15625 0.5625 0
0.125 0.59375 0
0.15625 0.59375 0
0.15625 0.5625 0
0.1875 0.5625 0
0.15625 0.59375 0
0.1875 0.59375 0
0.125 0.59375 0
0.15625 0.59375 0
0.125 0.625 0
0.15625 0.625 0
0.15625 0.59375 0
0.1875 0.59375 0
0.15625 0.625 0
0.1875 0.625 0
0.1875 0.5625 0
0.21875 0.5625 0
0.1875 0.59375 0
0.21875 0.59375 0
0.21875 0.5625 0
0.25 0.5625 0
0.21875 0.59375 0
0.25 0.59375 0
0.1875 0.59375 0
0.21875 0.59375 0
0.1875 0.625 0
0.21875 0.625 0
0.21875 0.59375 0
0.25 0.59375 0
0.21875 0.625 0
0.25 0.625 0
0 0.625 0
0.03125 0.625 0
0 0.65625 0
0.03125 0.65625 0
0.03125 0.625 0
0.0625 0.625 0
0.03125 0.65625 0
0.0625 0.65625 0
0 0.65625 0
0.03125 0.65625 0
0 0.6875 0
0.03125 0.6875 0
0.03125 0.65625 0
0.0625 0.65625 0
0.03125 0.6875 0
0.0625 0.6875 0
0.0625 0.625 0
0.09375 0.625 0
0.0625 0.65625 0
0.09375 0.65625 0
0.09375 0.625 0
0.125 0.625 0
0.09375 0.65625 0
0.125 0.65625 0
0.0625 0.65625 0
0.09375 0.65625 0
0.0625 0.6875 0
0.09375 0.6875 0
0.09375 0.65625 0
0.125 0.65625 0
0.09375 0.6875 0
0.125 0.6875 0
0 0.6875 0
0.03125 0.6875 0
0 0.71875 0
0.03125 0.71875 0
0.03125 0.6875 0
0.0625 0.6875 0
0.03125 0.71875 0
0.0625 0.71875 0
0 0.71875 0
0.03125 0.71875 0
0 0.75 0
0.03125 0.75 0
0.03125 0.71875 0
0.0625 0.71875 0
0.03125 0.75 0
0.0625 0.75 0
0.0625 0.6875 0
0.09375 0.6875 0
0.0625 0.71875 0
0.09375 0.71875 0
0.09375 0.6875 0
0.125 0.6875 0
0.09375 0.71875 0
0.125 0.71875 0
0.0625 0.71875 0
0.09375 0.71875 0
0.0625 0.75 0
0.09375 0.75 0
0.09375 0.71875 0
0.125 0.71875 0
0.09375 0.75 0
0.125 0.75 0
0.125 0.625 0
0.15625 0.625 0
0.125 0.65625 0
0.15625 0.65625 0
0.15625 0.625 0
0.1875 0.625 0
0.15625 0.65625 0
0.1875 0.65625 0
0.125 0.65625 0
0.15625 0.65625 0
0.125 0.6875 0
0.15625 0.6875 0
0.15625 0.65625 0
0.1875 0.65625 0
0.15625 0.6875 0
0.1875 0.6875 0
0.1875 0.625 0
0.21875 0.625 0
0.1875 0.65625 0
0.21875 0.65625 0
0.21875 0.625 0
0.25 0.625 0
0.21875 0.65625 0
0.25 0.65625 0
0.1875 0.65625 0
0.21875 0.65625 0
0.1875 0.6875 0
0.21875 0.6875 0
0.21875 0.65625 0
0.25 0.65625 0
0.21875 0.6875 0
0.25 0.6875 0
0.125 0.6875 0
0.15625 0.6875 0
0.125 0.71875 0
0.15625 0.71875 0
0.15625 0.6875 0
0.1875 0.6875 0
0.15625 0.71875 0
0.1875 0.71875 0
0.125 0.71875 0
0.15625 0.71875 0
0.125 0.75 0
0.15625 0.75 0
0.15625 0.71875 0
0.1875 0.71875 0
0.15625 0.75 0
0.1875 0.75 0
0.1875 0.6875 0
0.21875 0.6875 0
0.1875 0.71875 0
0.21875 0.71875 0
0.21875 0.6875 0
0.25 0.6875 0
0.21875 0.71875 0
0.25 0.71875 0
0.1875 0.71875 0
0.21875 0.71875 0
0.1875 0.75 0
0.21875 0.75 0
0.21875 0.71875 0
0.25 0.71875 0
0.21875 0.75 0
0.25 0.75 0
0.25 0.5 0
0.28125 0.5 0
0.25 0.53125 0
0.28125 0.53125 0
0.28125 0.5 0
0.3125 0.5 0
0.28125 0.53125 0
0.3125 0.53125 0
0.25 0.53125 0
0.28125 0.53125 0
0.25 0.5625 0
0.28125 0.5625 0
0.28125 0.53125 0
0.3125 0.53125 0
0.28125 0.5625 0
0.3125 0.5625 0
0.3125 0.5 0
0.34375 0.5 0
0.3125 0.53125 0
0.34375 0.53125 0
0.34375 0.5 0
0.375 0.5 0
0.34375 0.53125 0
0.375 0.53125 0
0.3125 0.53125 0
0.34375 0.53125 0
0.3125 0.5625 0
0.34375 0.5625 0
0.34375 0.53125 0
0.375 0.53125 0
0.34375 0.5625 0
0.375 0.5625 0
0.25 0.5625 0
0.28125 0.5625 0
0.25 0.59375 0
0.28125 0.59375 0
0.28125 0.5625 0
0.3125 0.5625 0
0.28125 0.59375 0
0.3125 0.59375 0
0.25 0.59375 0
0.28125 0.59375 0
0.25 0.625 0
0.28125 0.625 0
0.28125 0.59375 0
0.3125 0.59375 0
0.28125 0.625 0
0.3125 0.625 0
0.3125 0.5625 0
0.34375 0.5625 0
0.3125 0.59375 0
0.34375 0.59375 0
0.34375 0.5625 0
0.375 0.5625 0
0.34375 0.59375 0
0.375 0.59375 0
0.3125 0.59375 0
0.34375 0.59375 0
0.3125 0.625 0
0.34375 0.625 0
0.34375 0.59375 0
0.375 0.59375 0
0.34375 0.625 0
0.375 0.625 0
0.375 0.5 0
0.40625 0.5 0
0.375 0.53125 0
0.40625 0.53125 0
0.40625 0.5 0
0.4375 0.5 0
0.40625 0.53125 0
0.4375 0.53125 0
0.375 0.53125 0
0.40625 0.53125 0
0.375 0.5625 0
0.40625 0.5625 0
0.40625 0.53125 0
0.4375 0.53125 0
0.40625 0.5625 0
0.4375 0.5625 0
0.4375 0.5 0
0.46875 0.5 0
0.4375 0.53125 0
0.46875 0.53125 0
0.46875 0.5 0
0.5 0.5 0
0.46875 0.53125 0
0.5 0.53125 0
0.4375 0.53125 0
0.46875 0.53125 0
0.4375 0.5625 0
0.46875 0.5625 0
0.46875 0.53125 0
0.5 0.53125 0
0.46875 0.5625 0
0.5 0.5625 0
0.375 0.5625 0
0.40625 0.5625 0
0.375 0.59375 0
0.40625 0.59375 0
0.40625 0.5625 0
0.4375 0.5625 0
0.40625 0.59375 0
0.4375 0.59375 0
0.375 0.59375 0
0.40625 0.59375 0
0.375 0.625 0
0.40625 0.625 0
0.40625 0.59375 0
0.4375 0.59375 0
0.40625 0.625 0
0.4375 0.625 0
0.4375 0.5625 0
0.46875 0.5625 0
0.4375 0.59375 0
0.46875 0.59375 0
0.46875 0.5625 0
0.5 0.5625 0
0.46875 0.59375 0
0.5 0.59375 0
0.4375 0.59375 0
0.46875 0.59375 0
0.4375 0.625 0
0.46875 0.625 0
0.46875 0.59375 0
0.5 0.59375 0
0.46875 0.625 0
0.5 0.625 0
0.25 0.625 0
0.28125 0.625 0
0.25 0.65625 0
0.28125 0.65625 0
0.28125 0.625 0
0.3125 0.625 0
0.28125 0.65625 0
0.3125 0.65625 0
0.25 0.65625 0
0.28125 0.65625 0
0.25 0.6875 0
0.28125 0.6875 0
0.28125 0.65625 0
0.3125 0.65625 0
0.28125 0.6875 0
0.3125 0.6875 0
0.3125 0.625 0
0.34375 0.625 0
0.3125 0.65625 0
0.34375 0.65625 0
0.34375 0.625 0
0.375 0.625 0
0.34375 0.65625 0
0.375 0.65625 0
0.3125 0.65625 0
0.34375 0.65625 0
0.3125 0.6875 0
0.34375 0.6875 0
0.34375 0.65625 0
0.375 0.65625 0
0.34375 0.6875 0
0.375 0.6875 0
0.25 0.6875 0
0.28125 0.6875 0
0.25 0.71875 0
0.28125 0.71875 0
0.28125 0.6875 0
0.3125 0.6875 0
0.28125 0.71875 0
0.3125 0.71875 0
0.25 0.71875 0
0.28125 0.71875 0
0.25 0.75 0
0.28125 0.75 0
0.28125 0.71875 0
0.3125 0.71875 0
0.28125 0.75 0
0.3125 0.75 0
0.3125 0.6875 0
0.34375 0.6875 0
0.3125 0.71875 0
0.34375 0.71875 0
0.34375 0.6875 0
0.375 0.6875 0
0.34375 0.71875 0
0.375 0.71875 0
0.3125 0.71875 0
0.34375 0.71875 0
0.3125 0.75 0
0.34375 0.75 0
0.34375 0.71875 0
0.375 0.71875 0
0.34375 0.75 0
0.375 0.75 0
0.375 0.625 0
0.40625 0.625 0
0.375 0.65625 0
0.40625 0.65625 0
0.40625 0.625 0
0.4375 0.625 0
0.40625 0.65625 0
0.4375 0.65625 0
0.375 0.65625 0
0.40625 0.65625 0
0.375 0.6875 0
0.40625 0.6875 0
0.40625 0.65625 0
0.4375 0.65625 0
0.40625 0.6875 0
0.4375 0.6875 0
0.4375 0.625 0
0.46875 0.625 0
0.4375 0.65625 0
0.46875 0.65625 0
0.46875 0.625 0
0.5 0.625 0
0.46875 0.65625 0
0.5 0.65625 0
0.4375 0.65625 0
0.46875 0.65625 0
0.4375 0.6875 0
0.46875 0.6875 0
0.46875 0.65625 0
0.5 0.65625 0
0.46875 0.6875 0
0.5 0.6875 0
0.375 0.6875 0
0.40625 0.6875 0
0.375 0.71875 0
0.40625 0.71875 0
0.40625 0.6875 0
0.4375 0.6875 0
0.40625 0.71875 0
0.4375 0.71875 0
0.375 0.71875 0
0.40625 0.71875 0
0.375 0.75 0
0.40625 0.75 0
0.40625 0.71875 0
0.4375 0.71875 0
0.40625 0.75 0
0.4375 0.75 0
0.4375 0.6875 0
0.46875 0.6875 0
0.4375 0.71875 0
0.46875 0.71875 0
0.46875 0.6875 0
0.5 0.6875 0
0.46875 0.71875 0
0.5 0.71875 0
0.4375 0.71875 0
0.46875 0.71875 0
0.4375 0.75 0
0.46875 0.75 0
0.46875 0.71875 0
0.5 0.71875 0
0.46875 0.75 0
0.5 0.75 0
0 0.75 0
0.03125 0.75 0
0 0.78125 0
0.03125 0.78125 0
0.03125 0.75 0
0.0625 0.75 0
0.03125 0.78125 0
0.0625 0.78125 0
0 0.78125 0
0.03125 0.78125 0
0 0.8125 0
0.03125 0.8125 0
0.03125 0.78125 0
0.0625 0.78125 0
0.03125 0.8125 0
0.0625 0.8125 0
0.0625 0.75 0
0.09375 0.75 0
0.0625 0.78125 0
0.09375 0.78125 0
0.09375 0.75 0
0.125 0.75 0
0.09375 0.78125 0
0.125 0.78125 0
0.0625 0.78125 0
0.09375 0.78125 0
0.0625 0.8125 0
0.09375 0.8125 0
0.09375 0.78125 0
0.125 0.78125 0
0.09375 0.8125 0
0.125 0.8125 0
0 0.8125 0
0.03125 0.8125 0
0 0.84375 0
0.03125 0.84375 0
0.03125 0.8125 0
0.0625 0.8125 0
0.03125 0.84375 0
0.0625 0.84375 0
0 0.84375 0
0.03125 0.84375 0
0 0.875 0
0.03125 0.875 0
0.03125 0.84375 0
0.0625 0.84375 0
0.03125 0.875 0
0.0625 0.875 0
0.0625 0.8125 0
0.09375 0.8125 0
0.0625 0.84375 0
0.09375 0.84375 0
0.09375 0.8125 0
0.125 0.8125 0
0.09375 0.84375 0
0.125 0.84375 0
0.0625 0.84375 0
0.09375 0.84375 0
0.0625 0.875 0
0.09375 0.875 0
0.09375 0.84375 0
0.125 0.84375 0
0.09375 0.875 0
0.125 0.875 0
0.125 0.75 0
0.15625 0.75 0
0.125 0.78125 0
0.15625 0.78125 0
0.15625 0.75 0
0.1875 0.75 0
0.15625 0.78125 0
0.1875 0.78125 0
0.125 0.78125 0
0.15625 0.78125 0
0.125 0.8125 0
0.15625 0.8125 0
0.15625 0.78125 0
0.1875 0.78125 0
0.15625 0.8125 0
0.1875 0.8125 0
0.1875 0.75 0
0.21875 0.75 0
0.1875 0.78125 0
0.21875 0.78125 0
0.21875 0.75 0
0.25 0.75 0
0.21875 0.78125 0
0.25 0.78125 0
0.1875 0.78125 0
0.21875 0.78125 0
0.1875 0.8125 0
0.21875 0.8125 0
0.21875 0.78125 0
0.25 0.78125 0
0.21875 0.8125 0
0.25 0.8125 0
0.125 0.8125 0
0.15625 0.8125 0
0.125 0.84375 0
0.15625 0.84375 0
0.15625 0.8125 0
[...]
POINT_DATA 4096
SCALARS x_dis double 1
LOOKUP_TABLE default
-4.54818e-05 -4.54812e-05 -0.000117436 -0.000117434 -4.54812e-05 -4.54797e-05 -0.000117434 -0.000117432 -0.000117436 -0.000117434 -0.000209915 -0.000209912 -0.000117434 -0.000117432 -0.000209912 -0.000209909 -4.54797e-05 -4.54776e-05 -0.000117432 -0.000117429 -4.54776e-05 -4.54749e-05 -0.000117429 -0.000117426 -0.000117432 -0.000117429 -0.000209909 -0.000209905 -0.000117429 -0.000117426 -0.000209905 -0.0002099 -0.000209915 -0.000209912 -0.000313245 -0.00031324 -0.000209912 -0.000209909 -0.00031324 -0.000313236 -0.000313245 -0.00031324 -0.000421112 -0.000421105 -0.00031324 -0.000313236 -0.000421105 -0.0004211 -0.000209909 -0.000209905 -0.000313236 -0.000313231 -0.000209905 -0.0002099 -0.000313231 -0.000313226 -0.000313236 -0.000313231 -0.0004211 -0.000421094 -0.000313231 -0.000313226 -0.000421094 -0.000421087 -4.54749e-05 -4.54718e-05 -0.000117426 -0.000117421 -4.54718e-05 -4.54684e-05 -0.000117421 -0.000117417 -0.000117426 -0.000117421 -0.0002099 -0.000209894 -0.000117421 -0.000117417 -0.000209894 -0.000209889 -4.54684e-05 -4.5465e-05 -0.000117417 -0.000117415 -4.5465e-05 -4.54622e-05 -0.000117415 -0.000117417 -0.000117417 -0.000117415 -0.000209889 -0.000209887 -0.000117415 -0.000117417 -0.000209887 -0.000209893 -0.0002099 -0.000209894 -0.000313226 -0.000313218 -0.000209894 -0.000209889 -0.000313218 -0.000313211 -0.000313226 -0.000313218 -0.000421087 -0.000421079 -0.000313218 -0.000313211 -0.000421079 -0.000421071 -0.000209889 -0.000209887 -0.000313211 -0.000313209 -0.000209887 -0.000209893 -0.000313209 -0.000313215 -0.000313211 -0.000313209 -0.000421071 -0.000421067 -0.000313209 -0.000313215 -0.000421067 -0.00042107 -0.000421112 -0.000421105 -0.000530509 -0.000530501 -0.000421105 -0.0004211 -0.000530501 -0.000530494 -0.000530509 -0.000530501 -0.000640336 -0.000640326 -0.000530501 -0.000530494 -0.000640326 -0.000640318 -0.0004211 -0.000421094 -0.000530494 -0.000530487 -0.000421094 -0.000421087 -0.000530487 -0.00053048 -0.000530494 -0.000530487 -0.000640318 -0.000640309 -0.000530487 -0.00053048 -0.000640309 -0.000640301 -0.000640336 -0.000640326 -0.000750263 -0.000750252 -0.000640326 -0.000640318 -0.000750252 -0.000750242 -0.000750263 -0.000750252 -0.000860215 -0.000860202 -0.000750252 -0.000750242 -0.000860202 -0.00086019 -0.000640318 -0.000640309 -0.000750242 -0.000750232 -0.000640309 -0.000640301 -0.000750232 -0.000750223 -0.000750242 -0.000750232 -0.00086019 -0.000860179 -0.000750232 -0.000750223 -0.000860179 -0.000860169 -0.000421087 -0.000421079 -0.00053048 -0.000530471 -0.000421079 -0.000421071 -0.000530471 -0.000530462 -0.00053048 -0.000530471 -0.000640301 -0.000640292 -0.000530471 -0.000530462 -0.000640292 -0.000640283 -0.000421071 -0.000421067 -0.000530462 -0.000530455 -0.000421067 -0.00042107 -0.000530455 -0.000530454 -0.000530462 -0.000530455 -0.000640283 -0.000640274 -0.000530455 -0.000530454 -0.000640274 -0.000640268 -0.000640301 -0.000640292 -0.000750223 -0.000750214 -0.000640292 -0.000640283 -0.000750214 -0.000750204 -0.000750223 -0.000750214 -0.000860169 -0.000860159 -0.000750214 -0.000750204 -0.000860159 -0.00086015 -0.000640283 -0.000640274 -0.000750204 -0.000750194 -0.000640274 -0.000640268 -0.000750194 -0.000750186 -0.000750204 -0.000750194 -0.00086015 -0.00086014 -0.000750194 -0.000750186 -0.00086014 -0.000860131 -4.54622e-05 -4.546e-05 -0.000117417 -0.000117426 -4.546e-05 -4.54568e-05 -0.000117426 -0.000117431 -0.000117417 -0.000117426 -0.000209893 -0.000209907 -0.000117426 -0.000117431 -0.000209907 -0.000209919 -4.54568e-05 -4.54504e-05 -0.000117431 -0.000117386 -4.54504e-05 -4.54414e-05 -0.000117386 -0.000117214 -0.000117431 -0.000117386 -0.000209919 -0.000209873 -0.000117386 -0.000117214 -0.000209873 -0.00020967 -0.000209893 -0.000209907 -0.000313215 -0.000313229 -0.000209907 -0.000209919 -0.000313229 -0.000313243 -0.000313215 -0.000313229 -0.00042107 -0.000421082 -0.000313229 -0.000313243 -0.000421082 -0.000421094 -0.000209919 -0.000209873 -0.000313243 -0.000313218 -0.000209873 -0.00020967 -0.000313218 -0.000313092 -0.000313243 -0.000313218 -0.000421094 -0.000421085 -0.000313218 -0.000313092 -0.000421085 -0.000421025 -4.54414e-05 -4.54377e-05 -0.000117214 -0.000116885 -4.54377e-05 -4.54502e-05 -0.000116885 -0.000116612 -0.000117214 -0.000116885 -0.00020967 -0.000209256 -0.000116885 -0.000116612 -0.000209256 -0.000208731 -4.54502e-05 -4.54735e-05 -0.000116612 -0.000117146 -4.54735e-05 -4.54876e-05 -0.000117146 -0.000120984 -0.000116612 -0.000117146 -0.000208731 -0.000208396 -0.000117146 -0.000120984 -0.000208396 -0.000206835 -0.00020967 -0.000209256 -0.000313092 -0.000312831 -0.000209256 -0.000208731 -0.000312831 -0.000312481 -0.000313092 -0.000312831 -0.000421025 -0.000420925 -0.000312831 -0.000312481 -0.000420925 -0.000420835 -0.000208731 -0.000208396 -0.000312481 -0.000311875 -0.000208396 -0.000206835 -0.000311875 -0.00031105 -0.000312481 -0.000311875 -0.000420835 -0.000420862 -0.000311875 -0.00031105 -0.000420862 -0.000421041 -0.00042107 -0.000421082 -0.000530454 -0.000530463 -0.000421082 -0.000421094 -0.000530463 -0.000530475 -0.000530454 -0.000530463 -0.000640268 -0.00064027 -0.000530463 -0.000530475 -0.00064027 -0.00064028 -0.000421094 -0.000421085 -0.000530475 -0.000530477 -0.000421085 -0.000421025 -0.000530477 -0.000530448 -0.000530475 -0.000530477 -0.00064028 -0.000640293 -0.000530477 -0.000530448 -0.000640293 -0.000640292 -0.000640268 -0.00064027 -0.000750186 -0.000750181 -0.00064027 -0.00064028 -0.000750181 -0.000750183 -0.000750186 -0.000750181 -0.000860131 -0.000860124 -0.000750181 -0.000750183 -0.000860124 -0.000860118 -0.00064028 -0.000640293 -0.000750183 -0.000750193 -0.000640293 -0.000640292 -0.000750193 -0.000750208 -0.000750183 -0.000750193 -0.000860118 -0.000860116 -0.000750193 -0.000750208 -0.000860116 -0.000860121 -0.000421025 -0.000420925 -0.000530448 -0.00053039 -0.000420925 -0.000420835 -0.00053039 -0.00053037 -0.000530448 -0.00053039 -0.000640292 -0.00064026 -0.00053039 -0.00053037 -0.00064026 -0.000640206 -0.000420835 -0.000420862 -0.00053037 -0.000530492 -0.000420862 -0.000421041 -0.000530492 -0.000530824 -0.00053037 -0.000530492 -0.000640206 -0.000640169 -0.000530492 -0.000530824 -0.000640169 -0.000640177 -0.000640292 -0.00064026 -0.000750208 -0.000750214 -0.00064026 -0.000640206 -0.000750214 -0.000750194 -0.000750208 -0.000750214 -0.000860121 -0.000860132 -0.000750214 -0.000750194 -0.000860132 -0.000860142 -0.000640206 -0.000640169 -0.000750194 -0.000750139 -0.000640169 -0.000640177 -0.000750139 -0.000750052 -0.000750194 -0.000750139 -0.000860142 -0.000860141 -0.000750139 -0.000750052 -0.000860141 -0.000860123 -0.000860215 -0.000860202 -0.000970175 -0.00097016 -0.000860202 -0.00086019 -0.00097016 -0.000970147 -0.000970175 -0.00097016 -0.00108014 -0.00108013 -0.00097016 -0.000970147 -0.00108013 -0.00108011 -0.00086019 -0.000860179 -0.000970147 -0.000970134 -0.000860179 -0.000860169 -0.000970134 -0.000970123 -0.000970147 -0.000970134 -0.00108011 -0.0010801 -0.000970134 -0.000970123 -0.0010801 -0.00108008 -0.00108014 -0.00108013 -0.00119012 -0.0011901 -0.00108013 -0.00108011 -0.0011901 -0.00119008 -0.00119012 -0.0011901 -0.0013001 -0.00130007 -0.0011901 -0.00119008 -0.00130007 -0.00130006 -0.00108011 -0.0010801 -0.00119008 -0.00119006 -0.0010801 -0.00108008 -0.00119006 -0.00119005 -0.00119008 -0.00119006 -0.00130006 -0.00130004 -0.00119006 -0.00119005 -0.00130004 -0.00130003 -0.000860169 -0.000860159 -0.000970123 -0.000970113 -0.000860159 -0.00086015 -0.000970113 -0.000970104 -0.000970123 -0.000970113 -0.00108008 -0.00108007 -0.000970113 -0.000970104 -0.00108007 -0.00108006 -0.00086015 -0.00086014 -0.000970104 -0.000970095 -0.00086014 -0.000860131 -0.000970095 -0.000970086 -0.000970104 -0.000970095 -0.00108006 -0.00108006 -0.000970095 -0.000970086 -0.00108006 -0.00108005 -0.00108008 -0.00108007 -0.00119005 -0.00119004 -0.00108007 -0.00108006 -0.00119004 -0.00119003 -0.00119005 -0.00119004 -0.00130003 -0.00130002 -0.00119004 -0.00119003 -0.00130002 -0.00130001 -0.00108006 -0.00108006 -0.00119003 -0.00119002 -0.00108006 -0.00108005 -0.00119002 -0.00119002 -0.00119003 -0.00119002 -0.00130001 -0.0013 -0.00119002 -0.00119002 -0.0013 -0.00129999 -0.0013001 -0.00130007 -0.00141008 -0.00141006 -0.00130007 -0.00130006 -0.00141006 -0.00141004 -0.00141008 -0.00141006 -0.00152007 -0.00152004 -0.00141006 -0.00141004 -0.00152004 -0.00152002 -0.00130006 -0.00130004 -0.00141004 -0.00141002 -0.00130004 -0.00130003 -0.00141002 -0.00141001 -0.00141004 -0.00141002 -0.00152002 -0.00152001 -0.00141002 -0.00141001 -0.00152001 -0.00152 -0.00152007 -0.00152004 -0.00163005 -0.00163002 -0.00152004 -0.00152002 -0.00163002 -0.00163001 -0.00163005 -0.00163002 -0.00174 -0.00174 -0.00163002 -0.00163001 -0.00174 -0.00174 -0.00152002 -0.00152001 -0.00163001 -0.00163 -0.00152001 -0.00152 -0.00163 -0.00163 -0.00163001 -0.00163 -0.00174 -0.00174 -0.00163 -0.00163 -0.00174 -0.00174 -0.00130003 -0.00130002 -0.00141001 -0.00141 -0.00130002 -0.00130001 -0.00141 -0.00140999 -0.00141001 -0.00141 -0.00152 -0.00151999 -0.00141 -0.00140999 -0.00151999 -0.00151999 -0.00130001 -0.0013 -0.00140999 -0.00140999 -0.0013 -0.00129999 -0.00140999 -0.00140998 -0.00140999 -0.00140999 -0.00151999 -0.00151998 -0.00140999 -0.00140998 -0.00151998 -0.00151998 -0.00152 -0.00151999 -0.00163 -0.00162999 -0.00151999 -0.00151999 -0.00162999 -0.00162999 -0.00163 -0.00162999 -0.00174 -0.00174 -0.00162999 -0.00162999 -0.00174 -0.00174 -0.00151999 -0.00151998 -0.00162999 -0.00162999 -0.00151998 -0.00151998 -0.00162999 -0.00162998 -0.00162999 -0.00162999 -0.00174 -0.00174 -0.00162999 -0.00162998 -0.00174 -0.00174 -0.000860131 -0.000860124 -0.000970086 -0.000970078 -0.000860124 -0.000860118 -0.000970078 -0.00097007 -0.000970086 -0.000970078 -0.00108005 -0.00108004 -0.000970078 -0.00097007 -0.00108004 -0.00108003 -0.000860118 -0.000860116 -0.00097007 -0.000970064 -0.000860116 -0.000860121 -0.000970064 -0.000970057 -0.00097007 -0.000970064 -0.00108003 -0.00108003 -0.000970064 -0.000970057 -0.00108003 -0.00108002 -0.00108005 -0.00108004 -0.00119002 -0.00119001 -0.00108004 -0.00108003 -0.00119001 -0.00119 -0.00119002 -0.00119001 -0.00129999 -0.00129999 -0.00119001 -0.00119 -0.00129999 -0.00129998 -0.00108003 -0.00108003 -0.00119 -0.00119 -0.00108003 -0.00108002 -0.00119 -0.00118999 -0.00119 -0.00119 -0.00129998 -0.00129998 -0.00119 -0.00118999 -0.00129998 -0.00129997 -0.000860121 -0.000860132 -0.000970057 -0.000970053 -0.000860132 -0.000860142 -0.000970053 -0.000970052 -0.000970057 -0.000970053 -0.00108002 -0.00108001 -0.000970053 -0.000970052 -0.00108001 -0.00108 -0.000860142 -0.000860141 -0.000970052 -0.000970054 -0.000860141 -0.000860123 -0.000970054 -0.000970057 -0.000970052 -0.000970054 -0.00108 -0.00108 -0.000970054 -0.000970057 -0.00108 -0.00107999 -0.00108002 -0.00108001 -0.00118999 -0.00118999 -0.00108001 -0.00108 -0.00118999 -0.00118998 -0.00118999 -0.00118999 -0.00129997 -0.00129997 -0.00118999 -0.00118998 -0.00129997 -0.00129997 -0.00108 -0.00108 -0.00118998 -0.00118998 -0.00108 -0.00107999 -0.00118998 -0.00118997 -0.00118998 -0.00118998 -0.00129997 -0.00129996 -0.00118998 -0.00118997 -0.00129996 -0.00129996 -0.00129999 -0.00129999 -0.00140998 -0.00140998 -0.00129999 -0.00129998 -0.00140998 -0.00140997 -0.00140998 -0.00140998 -0.00151998 -0.00151997 -0.00140998 -0.00140997 -0.00151997 -0.00151997 -0.00129998 -0.00129998 -0.00140997 -0.00140997 -0.00129998 -0.00129997 -0.00140997 -0.00140997 -0.00140997 -0.00140997 -0.00151997 -0.00151997 -0.00140997 -0.00140997 -0.00151997 -0.00151997 -0.00151998 -0.00151997 -0.00162998 -0.00162998 -0.00151997 -0.00151997 -0.00162998 -0.00162998 -0.00162998 -0.00162998 -0.00174 -0.00174 -0.00162998 -0.00162998 -0.00174 -0.00174 -0.00151997 -0.00151997 -0.00162998 -0.00162998 -0.00151997 -0.00151997 -0.00162998 -0.00162998 -0.00162998 -0.00162998 -0.00174 -0.00174 -0.00162998 -0.00162998 -0.00174 -0.00174 -0.00129997 -0.00129997 -0.00140997 -0.00140996 -0.00129997 -0.00129997 -0.00140996 -0.00140996 -0.00140997 -0.00140996 -0.00151997 -0.00151997 -0.00140996 -0.00140996 -0.00151997 -0.00151996 -0.00129997 -0.00129996 -0.00140996 -0.00140996 -0.00129996 -0.00129996 -0.00140996 -0.00140995 -0.00140996 -0.00140996 -0.00151996 -0.00151996 -0.00140996 -0.00140995 -0.00151996 -0.00151996 -0.00151997 -0.00151997 -0.00162998 -0.00162998 -0.00151997 -0.00151996 -0.00162998 -0.00162998 -0.00162998 -0.00162998 -0.00174 -0.00174 -0.00162998 -0.00162998 -0.00174 -0.00174 -0.00151996 -0.00151996 -0.00162998 -0.00162998 -0.00151996 -0.00151996 -0.00162998 -0.00162998 -0.00162998 -0.00162998 -0.00174 -0.00174 -0.00162998 -0.00162998 -0.00174 -0.00174 -4.54876e-05 -8.12507e-05 -0.000120984 -0.000120343 -8.12507e-05 -9.23533e-05 -0.000120343 -0.000122903 -0.000120984 -0.000120343 -0.000206835 -0.000205003 -0.000120343 -0.000122903 -0.000205003 -0.000203031 -9.23533e-05 -9.39764e-05 -0.000122903 -0.000123509 -9.39764e-05 -9.30881e-05 -0.000123509 -0.000122496 -0.000122903 -0.000123509 -0.000203031 -0.000202192 -0.000123509 -0.000122496 -0.000202192 -0.00020136 -0.000206835 -0.000205003 -0.00031105 -0.000310017 -0.000205003 -0.000203031 -0.000310017 -0.000309363 -0.00031105 -0.000310017 -0.000421041 -0.000421418 -0.000310017 -0.000309363 -0.000421418 -0.000421869 -0.000203031 -0.000202192 -0.000309363 -0.000309004 -0.000202192 -0.00020136 -0.000309004 -0.000308771 -0.000309363 -0.000309004 -0.000421869 -0.000422218 -0.000309004 -0.000308771 -0.000422218 -0.000422297 -9.30881e-05 -9.19485e-05 -0.000122496 -0.00012116 -9.19485e-05 -9.10814e-05 -0.00012116 -0.0001203 -0.000122496 -0.00012116 -0.00020136 -0.000200534 -0.00012116 -0.0001203 -0.000200534 -0.000200034 -9.10814e-05 -9.06215e-05 -0.0001203 -0.000120034 -9.06215e-05 -9.05674e-05 -0.000120034 -0.000120102 -0.0001203 -0.000120034 -0.000200034 -0.000199913 -0.000120034 -0.000120102 -0.000199913 -0.000199983 -0.00020136 -0.000200534 -0.000308771 -0.000308478 -0.000200534 -0.000200034 -0.000308478 -0.000308259 -0.000308771 -0.000308478 -0.000422297 -0.000422185 -0.000308478 -0.000308259 -0.000422185 -0.000422056 -0.000200034 -0.000199913 -0.000308259 -0.000308196 -0.000199913 -0.000199983 -0.000308196 -0.00030823 -0.000308259 -0.000308196 -0.000422056 -0.000422016 -0.000308196 -0.00030823 -0.000422016 -0.000422046 -0.000421041 -0.000421418 -0.000530824 -0.00053129 -0.000421418 -0.000421869 -0.00053129 -0.00053171 -0.000530824 -0.00053129 -0.000640177 -0.000640204 -0.00053129 -0.00053171 -0.000640204 -0.000640182 -0.000421869 -0.000422218 -0.00053171 -0.000531905 -0.000422218 -0.000422297 -0.000531905 -0.000531869 -0.00053171 -0.000531905 -0.000640182 -0.000640083 -0.000531905 -0.000531869 -0.000640083 -0.000639959 -0.000640177 -0.000640204 -0.000750052 -0.000749942 -0.000640204 -0.000640182 -0.000749942 -0.000749829 -0.000750052 -0.000749942 -0.000860123 -0.000860096 -0.000749942 -0.000749829 -0.000860096 -0.000860078 -0.000640182 -0.000640083 -0.000749829 -0.00074974 -0.000640083 -0.000639959 -0.00074974 -0.000749704 -0.000749829 -0.00074974 -0.000860078 -0.00086008 -0.00074974 -0.000749704 -0.00086008 -0.000860101 -0.000422297 -0.000422185 -0.000531869 -0.00053174 -0.000422185 -0.000422056 -0.00053174 -0.000531662 -0.000531869 -0.00053174 -0.000639959 -0.000639886 -0.00053174 -0.000531662 -0.000639886 -0.000639888 -0.000422056 -0.000422016 -0.000531662 -0.000531667 -0.000422016 -0.000422046 -0.000531667 -0.000531709 -0.000531662 -0.000531667 -0.000639888 -0.000639928 -0.000531667 -0.000531709 -0.000639928 -0.000639962 -0.000639959 -0.000639886 -0.000749704 -0.00074972 -0.000639886 -0.000639888 -0.00074972 -0.000749757 -0.000749704 -0.00074972 -0.000860101 -0.000860125 -0.00074972 -0.000749757 -0.000860125 -0.000860137 -0.000639888 -0.000639928 -0.000749757 -0.000749783 -0.000639928 -0.000639962 -0.000749783 -0.000749791 -0.000749757 -0.000749783 -0.000860137 -0.000860136 -0.000749783 -0.000749791 -0.000860136 -0.000860129 -9.05674e-05 -9.0709e-05 -0.000120102 -0.000120234 -9.0709e-05 -9.08201e-05 -0.000120234 -0.000120306 -0.000120102 -0.000120234 -0.000199983 -0.000200067 -0.000120234 -0.000120306 -0.000200067 -0.000200106 -9.08201e-05 -9.08395e-05 -0.000120306 -0.00012031 -9.08395e-05 -9.08145e-05 -0.00012031 -0.000120287 -0.000120306 -0.00012031 -0.000200106 -0.000200109 -0.00012031 -0.000120287 -0.000200109 -0.000200095 -0.000199983 -0.000200067 -0.00030823 -0.000308282 -0.000200067 -0.000200106 -0.000308282 -0.000308314 -0.00030823 -0.000308282 -0.000422046 -0.000422091 -0.000308282 -0.000308314 -0.000422091 -0.000422117 -0.000200106 -0.000200109 -0.000308314 -0.00030832 -0.000200109 -0.000200095 -0.00030832 -0.000308309 -0.000308314 -0.00030832 -0.000422117 -0.000422117 -0.00030832 -0.000308309 -0.000422117 -0.000422103 -9.08145e-05 -9.07908e-05 -0.000120287 -0.000120269 -9.07908e-05 -9.07813e-05 -0.000120269 -0.000120263 -0.000120287 -0.000120269 -0.000200095 -0.000200082 -0.000120269 -0.000120263 -0.000200082 -0.000200076 -9.07813e-05 -9.07808e-05 -0.000120263 -0.000120263 -9.07808e-05 -9.07817e-05 -0.000120263 -0.000120263 -0.000120263 -0.000120263 -0.000200076 -0.000200073 -0.000120263 -0.000120263 -0.000200073 -0.000200071 -0.000200095 -0.000200082 -0.000308309 -0.000308296 -0.000200082 -0.000200076 -0.000308296 -0.000308288 -0.000308309 -0.000308296 -0.000422103 -0.00042209 -0.000308296 -0.000308288 -0.00042209 -0.000422082 -0.000200076 -0.000200073 -0.000308288 -0.000308284 -0.000200073 -0.000200071 -0.000308284 -0.00030828 -0.000308288 -0.000308284 -0.000422082 -0.000422078 -0.000308284 -0.00030828 -0.000422078 -0.000422073 -0.000422046 -0.000422091 -0.000531709 -0.000531744 -0.000422091 -0.000422117 -0.000531744 -0.000531754 -0.000531709 -0.000531744 -0.000639962 -0.000639974 -0.000531744 -0.000531754 -0.000639974 -0.000639969 -0.000422117 -0.000422117 -0.000531754 -0.000531745 -0.000422117 -0.000422103 -0.000531745 -0.00053173 -0.000531754 -0.000531745 -0.000639969 -0.000639956 -0.000531745 -0.00053173 -0.000639956 -0.000639943 -0.000639962 -0.000639974 -0.000749791 -0.000749786 -0.000639974 -0.000639969 -0.000749786 -0.000749775 -0.000749791 -0.000749786 -0.000860129 -0.00086012 -0.000749786 -0.000749775 -0.00086012 -0.00086011 -0.000639969 -0.000639956 -0.000749775 -0.000749764 -0.000639956 -0.000639943 -0.000749764 -0.000749753 -0.000749775 -0.000749764 -0.00086011 -0.000860099 -0.000749764 -0.000749753 -0.000860099 -0.000860089 -0.000422103 -0.00042209 -0.00053173 -0.000531719 -0.00042209 -0.000422082 -0.000531719 -0.000531712 -0.00053173 -0.000531719 -0.000639943 -0.000639934 -0.000531719 -0.000531712 -0.000639934 -0.000639927 -0.000422082 -0.000422078 -0.000531712 -0.000531707 -0.000422078 -0.000422073 -0.000531707 -0.0005317 -0.000531712 -0.000531707 -0.000639927 -0.000639919 -0.000531707 -0.0005317 -0.000639919 -0.00063991 -0.000639943 -0.000639934 -0.000749753 -0.000749744 -0.000639934 -0.000639927 -0.000749744 -0.000749735 -0.000749753 -0.000749744 -0.000860089 -0.000860079 -0.000749744 -0.000749735 -0.000860079 -0.000860069 -0.000639927 -0.000639919 -0.000749735 -0.000749726 -0.000639919 -0.00063991 -0.000749726 -0.000749715 -0.000749735 -0.000749726 -0.000860069 -0.000860058 -0.000749726 -0.000749715 -0.000860058 -0.000860045 -0.000860123 -0.000860096 -0.000970057 -0.00097006 -0.000860096 -0.000860078 -0.00097006 -0.000970066 -0.000970057 -0.00097006 -0.00107999 -0.00107998 -0.00097006 -0.000970066 -0.00107998 -0.00107998 -0.000860078 -0.00086008 -0.000970066 -0.000970072 -0.00086008 -0.000860101 -0.000970072 -0.000970075 -0.000970066 -0.000970072 -0.00107998 -0.00107997 -0.000970072 -0.000970075 -0.00107997 -0.00107996 -0.00107999 -0.00107998 -0.00118997 -0.00118997 -0.00107998 -0.00107998 -0.00118997 -0.00118997 -0.00118997 -0.00118997 -0.00129996 -0.00129996 -0.00118997 -0.00118997 -0.00129996 -0.00129996 -0.00107998 -0.00107997 -0.00118997 -0.00118996 -0.00107997 -0.00107996 -0.00118996 -0.00118996 -0.00118997 -0.00118996 -0.00129996 -0.00129996 -0.00118996 -0.0011899