# vtk DataFile Version 3.0
#This file was generated by the deal.II library on 2022/11/16 at 21:28:13
ASCII
DATASET UNSTRUCTURED_GRID

POINTS 4096 double
0 0.5 0
0.03125 0.5 0
0 0.53125 0
0.03125 0.53125 0
0.03125 0.5 0
0.0625 0.5 0
0.03125 0.53125 0
0.0625 0.53125 0
0 0.53125 0
0.03125 0.53125 0
0 0.5625 0
0.03125 0.5625 0
0.03125 0.53125 0
0.0625 0.53125 0
0.03125 0.5625 0
0.0625 0.5625 0
0.0625 0.5 0
0.09375 0.5 0
0.0625 0.53125 0
0.09375 0.53125 0
0.09375 0.5 0
0.125 0.5 0
0.09375 0.53125 0
0.125 0.53125 0
0.0625 0.53125 0
0.09375 0.53125 0
0.0625 0.5625 0
0.09375 0.5625 0
0.09375 0.53125 0
0.125 0.53125 0
0.09375 0.5625 0
0.125 0.5625 0
0 0.5625 0
0.03125 0.5625 0
0 0.59375 0
0.03125 0.59375 0
0.03125 0.5625 0
0.0625 0.5625 0
0.03125 0.59375 0
0.0625 0.59375 0
0 0.59375 0
0.03125 0.59375 0
0 0.625 0
0.03125 0.625 0
0.03125 0.59375 0
0.0625 0.59375 0
0.03125 0.625 0
0.0625 0.625 0
0.0625 0.5625 0
0.09375 0.5625 0
0.0625 0.59375 0
0.09375 0.59375 0
0.09375 0.5625 0
0.125 0.5625 0
0.09375 0.59375 0
0.125 0.59375 0
0.0625 0.59375 0
0.09375 0.59375 0
0.0625 0.625 0
0.09375 0.625 0
0.09375 0.59375 0
0.125 0.59375 0
0.09375 0.625 0
0.125 0.625 0
0.125 0.5 0
0.15625 0.5 0
0.125 0.53125 0
0.15625 0.53125 0
0.15625 0.5 0
0.1875 0.5 0
0.15625 0.53125 0
0.1875 0.53125 0
0.125 0.53125 0
0.15625 0.53125 0
0.125 0.5625 0
0.15625 0.5625 0
0.15625 0.53125 0
0.1875 0.53125 0
0.15625 0.5625 0
0.1875 0.5625 0
0.1875 0.5 0
0.21875 0.5 0
0.1875 0.53125 0
0.21875 0.53125 0
0.21875 0.5 0
0.25 0.5 0
0.21875 0.53125 0
0.25 0.53125 0
0.1875 0.53125 0
0.21875 0.53125 0
0.1875 0.5625 0
0.21875 0.5625 0
0.21875 0.53125 0
0.25 0.53125 0
0.21875 0.5625 0
0.25 0.5625 0
0.125 0.5625 0
0.15625 0.5625 0
0.125 0.59375 0
0.15625 0.59375 0
0.15625 0.5625 0
0.1875 0.5625 0
0.15625 0.59375 0
0.1875 0.59375 0
0.125 0.59375 0
0.15625 0.59375 0
0.125 0.625 0
0.15625 0.625 0
0.15625 0.59375 0
0.1875 0.59375 0
0.15625 0.625 0
0.1875 0.625 0
0.1875 0.5625 0
0.21875 0.5625 0
0.1875 0.59375 0
0.21875 0.59375 0
0.21875 0.5625 0
0.25 0.5625 0
0.21875 0.59375 0
0.25 0.59375 0
0.1875 0.59375 0
0.21875 0.59375 0
0.1875 0.625 0
0.21875 0.625 0
0.21875 0.59375 0
0.25 0.59375 0
0.21875 0.625 0
0.25 0.625 0
0 0.625 0
0.03125 0.625 0
0 0.65625 0
0.03125 0.65625 0
0.03125 0.625 0
0.0625 0.625 0
0.03125 0.65625 0
0.0625 0.65625 0
0 0.65625 0
0.03125 0.65625 0
0 0.6875 0
0.03125 0.6875 0
0.03125 0.65625 0
0.0625 0.65625 0
0.03125 0.6875 0
0.0625 0.6875 0
0.0625 0.625 0
0.09375 0.625 0
0.0625 0.65625 0
0.09375 0.65625 0
0.09375 0.625 0
0.125 0.625 0
0.09375 0.65625 0
0.125 0.65625 0
0.0625 0.65625 0
0.09375 0.65625 0
0.0625 0.6875 0
0.09375 0.6875 0
0.09375 0.65625 0
0.125 0.65625 0
0.09375 0.6875 0
0.125 0.6875 0
0 0.6875 0
0.03125 0.6875 0
0 0.71875 0
0.03125 0.71875 0
0.03125 0.6875 0
0.0625 0.6875 0
0.03125 0.71875 0
0.0625 0.71875 0
0 0.71875 0
0.03125 0.71875 0
0 0.75 0
0.03125 0.75 0
0.03125 0.71875 0
0.0625 0.71875 0
0.03125 0.75 0
0.0625 0.75 0
0.0625 0.6875 0
0.09375 0.6875 0
0.0625 0.71875 0
0.09375 0.71875 0
0.09375 0.6875 0
0.125 0.6875 0
0.09375 0.71875 0
0.125 0.71875 0
0.0625 0.71875 0
0.09375 0.71875 0
0.0625 0.75 0
0.09375 0.75 0
0.09375 0.71875 0
0.125 0.71875 0
0.09375 0.75 0
0.125 0.75 0
0.125 0.625 0
0.15625 0.625 0
0.125 0.65625 0
0.15625 0.65625 0
0.15625 0.625 0
0.1875 0.625 0
0.15625 0.65625 0
0.1875 0.65625 0
0.125 0.65625 0
0.15625 0.65625 0
0.125 0.6875 0
0.15625 0.6875 0
0.15625 0.65625 0
0.1875 0.65625 0
0.15625 0.6875 0
0.1875 0.6875 0
0.1875 0.625 0
0.21875 0.625 0
0.1875 0.65625 0
0.21875 0.65625 0
0.21875 0.625 0
0.25 0.625 0
0.21875 0.65625 0
0.25 0.65625 0
0.1875 0.65625 0
0.21875 0.65625 0
0.1875 0.6875 0
0.21875 0.6875 0
0.21875 0.65625 0
0.25 0.65625 0
0.21875 0.6875 0
0.25 0.6875 0
0.125 0.6875 0
0.15625 0.6875 0
0.125 0.71875 0
0.15625 0.71875 0
0.15625 0.6875 0
0.1875 0.6875 0
0.15625 0.71875 0
0.1875 0.71875 0
0.125 0.71875 0
0.15625 0.71875 0
0.125 0.75 0
0.15625 0.75 0
0.15625 0.71875 0
0.1875 0.71875 0
0.15625 0.75 0
0.1875 0.75 0
0.1875 0.6875 0
0.21875 0.6875 0
0.1875 0.71875 0
0.21875 0.71875 0
0.21875 0.6875 0
0.25 0.6875 0
0.21875 0.71875 0
0.25 0.71875 0
0.1875 0.71875 0
0.21875 0.71875 0
0.1875 0.75 0
0.21875 0.75 0
0.21875 0.71875 0
0.25 0.71875 0
0.21875 0.75 0
0.25 0.75 0
0.25 0.5 0
0.28125 0.5 0
0.25 0.53125 0
0.28125 0.53125 0
0.28125 0.5 0
0.3125 0.5 0
0.28125 0.53125 0
0.3125 0.53125 0
0.25 0.53125 0
0.28125 0.53125 0
0.25 0.5625 0
0.28125 0.5625 0
0.28125 0.53125 0
0.3125 0.53125 0
0.28125 0.5625 0
0.3125 0.5625 0
0.3125 0.5 0
0.34375 0.5 0
0.3125 0.53125 0
0.34375 0.53125 0
0.34375 0.5 0
0.375 0.5 0
0.34375 0.53125 0
0.375 0.53125 0
0.3125 0.53125 0
0.34375 0.53125 0
0.3125 0.5625 0
0.34375 0.5625 0
0.34375 0.53125 0
0.375 0.53125 0
0.34375 0.5625 0
0.375 0.5625 0
0.25 0.5625 0
0.28125 0.5625 0
0.25 0.59375 0
0.28125 0.59375 0
0.28125 0.5625 0
0.3125 0.5625 0
0.28125 0.59375 0
0.3125 0.59375 0
0.25 0.59375 0
0.28125 0.59375 0
0.25 0.625 0
0.28125 0.625 0
0.28125 0.59375 0
0.3125 0.59375 0
0.28125 0.625 0
0.3125 0.625 0
0.3125 0.5625 0
0.34375 0.5625 0
0.3125 0.59375 0
0.34375 0.59375 0
0.34375 0.5625 0
0.375 0.5625 0
0.34375 0.59375 0
0.375 0.59375 0
0.3125 0.59375 0
0.34375 0.59375 0
0.3125 0.625 0
0.34375 0.625 0
0.34375 0.59375 0
0.375 0.59375 0
0.34375 0.625 0
0.375 0.625 0
0.375 0.5 0
0.40625 0.5 0
0.375 0.53125 0
0.40625 0.53125 0
0.40625 0.5 0
0.4375 0.5 0
0.40625 0.53125 0
0.4375 0.53125 0
0.375 0.53125 0
0.40625 0.53125 0
0.375 0.5625 0
0.40625 0.5625 0
0.40625 0.53125 0
0.4375 0.53125 0
0.40625 0.5625 0
0.4375 0.5625 0
0.4375 0.5 0
0.46875 0.5 0
0.4375 0.53125 0
0.46875 0.53125 0
0.46875 0.5 0
0.5 0.5 0
0.46875 0.53125 0
0.5 0.53125 0
0.4375 0.53125 0
0.46875 0.53125 0
0.4375 0.5625 0
0.46875 0.5625 0
0.46875 0.53125 0
0.5 0.53125 0
0.46875 0.5625 0
0.5 0.5625 0
0.375 0.5625 0
0.40625 0.5625 0
0.375 0.59375 0
0.40625 0.59375 0
0.40625 0.5625 0
0.4375 0.5625 0
0.40625 0.59375 0
0.4375 0.59375 0
0.375 0.59375 0
0.40625 0.59375 0
0.375 0.625 0
0.40625 0.625 0
0.40625 0.59375 0
0.4375 0.59375 0
0.40625 0.625 0
0.4375 0.625 0
0.4375 0.5625 0
0.46875 0.5625 0
0.4375 0.59375 0
0.46875 0.59375 0
0.46875 0.5625 0
0.5 0.5625 0
0.46875 0.59375 0
0.5 0.59375 0
0.4375 0.59375 0
0.46875 0.59375 0
0.4375 0.625 0
0.46875 0.625 0
0.46875 0.59375 0
0.5 0.59375 0
0.46875 0.625 0
0.5 0.625 0
0.25 0.625 0
0.28125 0.625 0
0.25 0.65625 0
0.28125 0.65625 0
0.28125 0.625 0
0.3125 0.625 0
0.28125 0.65625 0
0.3125 0.65625 0
0.25 0.65625 0
0.28125 0.65625 0
0.25 0.6875 0
0.28125 0.6875 0
0.28125 0.65625 0
0.3125 0.65625 0
0.28125 0.6875 0
0.3125 0.6875 0
0.3125 0.625 0
0.34375 0.625 0
0.3125 0.65625 0
0.34375 0.65625 0
0.34375 0.625 0
0.375 0.625 0
0.34375 0.65625 0
0.375 0.65625 0
0.3125 0.65625 0
0.34375 0.65625 0
0.3125 0.6875 0
0.34375 0.6875 0
0.34375 0.65625 0
0.375 0.65625 0
0.34375 0.6875 0
0.375 0.6875 0
0.25 0.6875 0
0.28125 0.6875 0
0.25 0.71875 0
0.28125 0.71875 0
0.28125 0.6875 0
0.3125 0.6875 0
0.28125 0.71875 0
0.3125 0.71875 0
0.25 0.71875 0
0.28125 0.71875 0
0.25 0.75 0
0.28125 0.75 0
0.28125 0.71875 0
0.3125 0.71875 0
0.28125 0.75 0
0.3125 0.75 0
0.3125 0.6875 0
0.34375 0.6875 0
0.3125 0.71875 0
0.34375 0.71875 0
0.34375 0.6875 0
0.375 0.6875 0
0.34375 0.71875 0
0.375 0.71875 0
0.3125 0.71875 0
0.34375 0.71875 0
0.3125 0.75 0
0.34375 0.75 0
0.34375 0.71875 0
0.375 0.71875 0
0.34375 0.75 0
0.375 0.75 0
0.375 0.625 0
0.40625 0.625 0
0.375 0.65625 0
0.40625 0.65625 0
0.40625 0.625 0
0.4375 0.625 0
0.40625 0.65625 0
0.4375 0.65625 0
0.375 0.65625 0
0.40625 0.65625 0
0.375 0.6875 0
0.40625 0.6875 0
0.40625 0.65625 0
0.4375 0.65625 0
0.40625 0.6875 0
0.4375 0.6875 0
0.4375 0.625 0
0.46875 0.625 0
0.4375 0.65625 0
0.46875 0.65625 0
0.46875 0.625 0
0.5 0.625 0
0.46875 0.65625 0
0.5 0.65625 0
0.4375 0.65625 0
0.46875 0.65625 0
0.4375 0.6875 0
0.46875 0.6875 0
0.46875 0.65625 0
0.5 0.65625 0
0.46875 0.6875 0
0.5 0.6875 0
0.375 0.6875 0
0.40625 0.6875 0
0.375 0.71875 0
0.40625 0.71875 0
0.40625 0.6875 0
0.4375 0.6875 0
0.40625 0.71875 0
0.4375 0.71875 0
0.375 0.71875 0
0.40625 0.71875 0
0.375 0.75 0
0.40625 0.75 0
0.40625 0.71875 0
0.4375 0.71875 0
0.40625 0.75 0
0.4375 0.75 0
0.4375 0.6875 0
0.46875 0.6875 0
0.4375 0.71875 0
0.46875 0.71875 0
0.46875 0.6875 0
0.5 0.6875 0
0.46875 0.71875 0
0.5 0.71875 0
0.4375 0.71875 0
0.46875 0.71875 0
0.4375 0.75 0
0.46875 0.75 0
0.46875 0.71875 0
0.5 0.71875 0
0.46875 0.75 0
0.5 0.75 0
0 0.75 0
0.03125 0.75 0
0 0.78125 0
0.03125 0.78125 0
0.03125 0.75 0
0.0625 0.75 0
0.03125 0.78125 0
0.0625 0.78125 0
0 0.78125 0
0.03125 0.78125 0
0 0.8125 0
0.03125 0.8125 0
0.03125 0.78125 0
0.0625 0.78125 0
0.03125 0.8125 0
0.0625 0.8125 0
0.0625 0.75 0
0.09375 0.75 0
0.0625 0.78125 0
0.09375 0.78125 0
0.09375 0.75 0
0.125 0.75 0
0.09375 0.78125 0
0.125 0.78125 0
0.0625 0.78125 0
0.09375 0.78125 0
0.0625 0.8125 0
0.09375 0.8125 0
0.09375 0.78125 0
0.125 0.78125 0
0.09375 0.8125 0
0.125 0.8125 0
0 0.8125 0
0.03125 0.8125 0
0 0.84375 0
0.03125 0.84375 0
0.03125 0.8125 0
0.0625 0.8125 0
0.03125 0.84375 0
0.0625 0.84375 0
0 0.84375 0
0.03125 0.84375 0
0 0.875 0
0.03125 0.875 0
0.03125 0.84375 0
0.0625 0.84375 0
0.03125 0.875 0
0.0625 0.875 0
0.0625 0.8125 0
0.09375 0.8125 0
0.0625 0.84375 0
0.09375 0.84375 0
0.09375 0.8125 0
0.125 0.8125 0
0.09375 0.84375 0
0.125 0.84375 0
0.0625 0.84375 0
0.09375 0.84375 0
0.0625 0.875 0
0.09375 0.875 0
0.09375 0.84375 0
0.125 0.84375 0
0.09375 0.875 0
0.125 0.875 0
0.125 0.75 0
0.15625 0.75 0
0.125 0.78125 0
0.15625 0.78125 0
0.15625 0.75 0
0.1875 0.75 0
0.15625 0.78125 0
0.1875 0.78125 0
0.125 0.78125 0
0.15625 0.78125 0
0.125 0.8125 0
0.15625 0.8125 0
0.15625 0.78125 0
0.1875 0.78125 0
0.15625 0.8125 0
0.1875 0.8125 0
0.1875 0.75 0
0.21875 0.75 0
0.1875 0.78125 0
0.21875 0.78125 0
0.21875 0.75 0
0.25 0.75 0
0.21875 0.78125 0
0.25 0.78125 0
0.1875 0.78125 0
0.21875 0.78125 0
0.1875 0.8125 0
0.21875 0.8125 0
0.21875 0.78125 0
0.25 0.78125 0
0.21875 0.8125 0
0.25 0.8125 0
0.125 0.8125 0
0.15625 0.8125 0
0.125 0.84375 0
0.15625 0.84375 0
0.15625 0.8125 0
[...]
POINT_DATA 4096
SCALARS x_dis double 1
LOOKUP_TABLE default
9.82799e-06 9.82825e-06 -2.99459e-06 -2.99422e-06 9.82825e-06 9.829e-06 -2.99422e-06 -2.99317e-06 -2.99459e-06 -2.99422e-06 -4.75571e-05 -4.75565e-05 -2.99422e-06 -2.99317e-06 -4.75565e-05 -4.7555e-05 9.829e-06 9.83017e-06 -2.99317e-06 -2.99157e-06 9.83017e-06 9.83166e-06 -2.99157e-06 -2.98959e-06 -2.99317e-06 -2.99157e-06 -4.7555e-05 -4.75528e-05 -2.99157e-06 -2.98959e-06 -4.75528e-05 -4.75502e-05 -4.75571e-05 -4.75565e-05 -0.000122521 -0.000122519 -4.75565e-05 -4.7555e-05 -0.000122519 -0.000122517 -0.000122521 -0.000122519 -0.000217499 -0.000217496 -0.000122519 -0.000122517 -0.000217496 -0.000217493 -4.7555e-05 -4.75528e-05 -0.000122517 -0.000122514 -4.75528e-05 -4.75502e-05 -0.000122514 -0.000122511 -0.000122517 -0.000122514 -0.000217493 -0.000217489 -0.000122514 -0.000122511 -0.000217489 -0.000217485 9.83166e-06 9.83337e-06 -2.98959e-06 -2.98746e-06 9.83337e-06 9.83519e-06 -2.98746e-06 -2.98533e-06 -2.98959e-06 -2.98746e-06 -4.75502e-05 -4.75475e-05 -2.98746e-06 -2.98533e-06 -4.75475e-05 -4.75449e-05 9.83519e-06 9.83707e-06 -2.98533e-06 -2.983e-06 9.83707e-06 9.83904e-06 -2.983e-06 -2.97992e-06 -2.98533e-06 -2.983e-06 -4.75449e-05 -4.75421e-05 -2.983e-06 -2.97992e-06 -4.75421e-05 -4.75381e-05 -4.75502e-05 -4.75475e-05 -0.000122511 -0.000122507 -4.75475e-05 -4.75449e-05 -0.000122507 -0.000122504 -0.000122511 -0.000122507 -0.000217485 -0.00021748 -0.000122507 -0.000122504 -0.00021748 -0.000217476 -4.75449e-05 -4.75421e-05 -0.000122504 -0.000122501 -4.75421e-05 -4.75381e-05 -0.000122501 -0.000122496 -0.000122504 -0.000122501 -0.000217476 -0.000217473 -0.000122501 -0.000122496 -0.000217473 -0.000217468 -0.000217499 -0.000217496 -0.000322264 -0.00032226 -0.000217496 -0.000217493 -0.00032226 -0.000322255 -0.000322264 -0.00032226 -0.000430755 -0.000430749 -0.00032226 -0.000322255 -0.000430749 -0.000430743 -0.000217493 -0.000217489 -0.000322255 -0.00032225 -0.000217489 -0.000217485 -0.00032225 -0.000322245 -0.000322255 -0.00032225 -0.000430743 -0.000430737 -0.00032225 -0.000322245 -0.000430737 -0.00043073 -0.000430755 -0.000430749 -0.000540363 -0.000540356 -0.000430749 -0.000430743 -0.000540356 -0.000540348 -0.000540363 -0.000540356 -0.000650251 -0.000650241 -0.000540356 -0.000540348 -0.000650241 -0.000650232 -0.000430743 -0.000430737 -0.000540348 -0.000540341 -0.000430737 -0.00043073 -0.000540341 -0.000540334 -0.000540348 -0.000540341 -0.000650232 -0.000650224 -0.000540341 -0.000540334 -0.000650224 -0.000650215 -0.000217485 -0.00021748 -0.000322245 -0.00032224 -0.00021748 -0.000217476 -0.00032224 -0.000322235 -0.000322245 -0.00032224 -0.00043073 -0.000430724 -0.00032224 -0.000322235 -0.000430724 -0.000430718 -0.000217476 -0.000217473 -0.000322235 -0.000322231 -0.000217473 -0.000217468 -0.000322231 -0.000322226 -0.000322235 -0.000322231 -0.000430718 -0.000430713 -0.000322231 -0.000322226 -0.000430713 -0.000430708 -0.00043073 -0.000430724 -0.000540334 -0.000540327 -0.000430724 -0.000430718 -0.000540327 -0.00054032 -0.000540334 -0.000540327 -0.000650215 -0.000650208 -0.000540327 -0.00054032 -0.000650208 -0.0006502 -0.000430718 -0.000430713 -0.00054032 -0.000540314 -0.000430713 -0.000430708 -0.000540314 -0.000540309 -0.00054032 -0.000540314 -0.0006502 -0.000650194 -0.000540314 -0.000540309 -0.000650194 -0.000650188 9.83904e-06 9.84118e-06 -2.97992e-06 -2.97529e-06 9.84118e-06 9.84327e-06 -2.97529e-06 -2.96996e-06 -2.97992e-06 -2.97529e-06 -4.75381e-05 -4.75321e-05 -2.97529e-06 -2.96996e-06 -4.75321e-05 -4.75251e-05 9.84327e-06 9.84451e-06 -2.96996e-06 -2.97379e-06 9.84451e-06 9.84436e-06 -2.97379e-06 -3.00731e-06 -2.96996e-06 -2.97379e-06 -4.75251e-05 -4.75275e-05 -2.97379e-06 -3.00731e-06 -4.75275e-05 -4.75619e-05 -4.75381e-05 -4.75321e-05 -0.000122496 -0.00012249 -4.75321e-05 -4.75251e-05 -0.00012249 -0.000122482 -0.000122496 -0.00012249 -0.000217468 -0.000217461 -0.00012249 -0.000122482 -0.000217461 -0.000217454 -4.75251e-05 -4.75275e-05 -0.000122482 -0.000122482 -4.75275e-05 -4.75619e-05 -0.000122482 -0.000122499 -0.000122482 -0.000122482 -0.000217454 -0.00021745 -0.000122482 -0.000122499 -0.00021745 -0.000217457 9.84436e-06 9.84478e-06 -3.00731e-06 -3.06608e-06 9.84478e-06 9.84905e-06 -3.06608e-06 -3.04118e-06 -3.00731e-06 -3.06608e-06 -4.75619e-05 -4.76318e-05 -3.06608e-06 -3.04118e-06 -4.76318e-05 -4.76799e-05 9.84905e-06 9.85135e-06 -3.04118e-06 -2.65317e-06 9.85135e-06 9.84591e-06 -2.65317e-06 -1.27253e-06 -3.04118e-06 -2.65317e-06 -4.76799e-05 -4.76258e-05 -2.65317e-06 -1.27253e-06 -4.76258e-05 -4.77928e-05 -4.75619e-05 -4.76318e-05 -0.000122499 -0.000122534 -4.76318e-05 -4.76799e-05 -0.000122534 -0.00012257 -0.000122499 -0.000122534 -0.000217457 -0.000217471 -0.000122534 -0.00012257 -0.000217471 -0.000217475 -4.76799e-05 -4.76258e-05 -0.00012257 -0.000122668 -4.76258e-05 -4.77928e-05 -0.000122668 -0.000122905 -0.00012257 -0.000122668 -0.000217475 -0.000217448 -0.000122668 -0.000122905 -0.000217448 -0.000217385 -0.000217468 -0.000217461 -0.000322226 -0.00032222 -0.000217461 -0.000217454 -0.00032222 -0.000322212 -0.000322226 -0.00032222 -0.000430708 -0.000430703 -0.00032222 -0.000322212 -0.000430703 -0.000430696 -0.000217454 -0.00021745 -0.000322212 -0.000322205 -0.00021745 -0.000217457 -0.000322205 -0.000322203 -0.000322212 -0.000322205 -0.000430696 -0.000430688 -0.000322205 -0.000322203 -0.000430688 -0.00043068 -0.000430708 -0.000430703 -0.000540309 -0.000540303 -0.000430703 -0.000430696 -0.000540303 -0.000540298 -0.000540309 -0.000540303 -0.000650188 -0.000650183 -0.000540303 -0.000540298 -0.000650183 -0.000650178 -0.000430696 -0.000430688 -0.000540298 -0.000540292 -0.000430688 -0.00043068 -0.000540292 -0.000540285 -0.000540298 -0.000540292 -0.000650178 -0.000650173 -0.000540292 -0.000540285 -0.000650173 -0.000650169 -0.000217457 -0.000217471 -0.000322203 -0.000322213 -0.000217471 -0.000217475 -0.000322213 -0.000322222 -0.000322203 -0.000322213 -0.00043068 -0.000430676 -0.000322213 -0.000322222 -0.000430676 -0.000430682 -0.000217475 -0.000217448 -0.000322222 -0.000322202 -0.000217448 -0.000217385 -0.000322202 -0.00032213 -0.000322222 -0.000322202 -0.000430682 -0.000430694 -0.000322202 -0.00032213 -0.000430694 -0.000430704 -0.00043068 -0.000430676 -0.000540285 -0.000540275 -0.000430676 -0.000430682 -0.000540275 -0.000540267 -0.000540285 -0.000540275 -0.000650169 -0.000650163 -0.000540275 -0.000540267 -0.000650163 -0.000650156 -0.000430682 -0.000430694 -0.000540267 -0.000540266 -0.000430694 -0.000430704 -0.000540266 -0.000540274 -0.000540267 -0.000540266 -0.000650156 -0.000650149 -0.000540266 -0.000540274 -0.000650149 -0.000650143 -0.000650251 -0.000650241 -0.000760195 -0.000760184 -0.000650241 -0.000650232 -0.000760184 -0.000760173 -0.000760195 -0.000760184 -0.000870155 -0.000870142 -0.000760184 -0.000760173 -0.000870142 -0.00087013 -0.000650232 -0.000650224 -0.000760173 -0.000760163 -0.000650224 -0.000650215 -0.000760163 -0.000760154 -0.000760173 -0.000760163 -0.00087013 -0.000870118 -0.000760163 -0.000760154 -0.000870118 -0.000870108 -0.000870155 -0.000870142 -0.000980123 -0.000980108 -0.000870142 -0.00087013 -0.000980108 -0.000980094 -0.000980123 -0.000980108 -0.0010901 -0.00109008 -0.000980108 -0.000980094 -0.00109008 -0.00109006 -0.00087013 -0.000870118 -0.000980094 -0.000980081 -0.000870118 -0.000870108 -0.000980081 -0.00098007 -0.000980094 -0.000980081 -0.00109006 -0.00109005 -0.000980081 -0.00098007 -0.00109005 -0.00109004 -0.000650215 -0.000650208 -0.000760154 -0.000760146 -0.000650208 -0.0006502 -0.000760146 -0.000760138 -0.000760154 -0.000760146 -0.000870108 -0.0008701 -0.000760146 -0.000760138 -0.0008701 -0.000870092 -0.0006502 -0.000650194 -0.000760138 -0.000760131 -0.000650194 -0.000650188 -0.000760131 -0.000760125 -0.000760138 -0.000760131 -0.000870092 -0.000870085 -0.000760131 -0.000760125 -0.000870085 -0.000870079 -0.000870108 -0.0008701 -0.00098007 -0.000980061 -0.0008701 -0.000870092 -0.000980061 -0.000980054 -0.00098007 -0.000980061 -0.00109004 -0.00109003 -0.000980061 -0.000980054 -0.00109003 -0.00109002 -0.000870092 -0.000870085 -0.000980054 -0.000980047 -0.000870085 -0.000870079 -0.000980047 -0.000980042 -0.000980054 -0.000980047 -0.00109002 -0.00109002 -0.000980047 -0.000980042 -0.00109002 -0.00109001 -0.0010901 -0.00109008 -0.00120008 -0.00120006 -0.00109008 -0.00109006 -0.00120006 -0.00120004 -0.00120008 -0.00120006 -0.00131006 -0.00131004 -0.00120006 -0.00120004 -0.00131004 -0.00131002 -0.00109006 -0.00109005 -0.00120004 -0.00120003 -0.00109005 -0.00109004 -0.00120003 -0.00120002 -0.00120004 -0.00120003 -0.00131002 -0.00131001 -0.00120003 -0.00120002 -0.00131001 -0.00131 -0.00131006 -0.00131004 -0.00142005 -0.00142002 -0.00131004 -0.00131002 -0.00142002 -0.00142001 -0.00142005 -0.00142002 -0.00153 -0.00153 -0.00142002 -0.00142001 -0.00153 -0.00153 -0.00131002 -0.00131001 -0.00142001 -0.00142 -0.00131001 -0.00131 -0.00142 -0.00142 -0.00142001 -0.00142 -0.00153 -0.00153 -0.00142 -0.00142 -0.00153 -0.00153 -0.00109004 -0.00109003 -0.00120002 -0.00120001 -0.00109003 -0.00109002 -0.00120001 -0.0012 -0.00120002 -0.00120001 -0.00131 -0.00131 -0.00120001 -0.0012 -0.00131 -0.00130999 -0.00109002 -0.00109002 -0.0012 -0.0012 -0.00109002 -0.00109001 -0.0012 -0.00119999 -0.0012 -0.0012 -0.00130999 -0.00130999 -0.0012 -0.00119999 -0.00130999 -0.00130999 -0.00131 -0.00131 -0.00142 -0.00141999 -0.00131 -0.00130999 -0.00141999 -0.00141999 -0.00142 -0.00141999 -0.00153 -0.00153 -0.00141999 -0.00141999 -0.00153 -0.00153 -0.00130999 -0.00130999 -0.00141999 -0.00141999 -0.00130999 -0.00130999 -0.00141999 -0.00141999 -0.00141999 -0.00141999 -0.00153 -0.00153 -0.00141999 -0.00141999 -0.00153 -0.00153 -0.000650188 -0.000650183 -0.000760125 -0.00076012 -0.000650183 -0.000650178 -0.00076012 -0.000760115 -0.000760125 -0.00076012 -0.000870079 -0.000870074 -0.00076012 -0.000760115 -0.000870074 -0.000870069 -0.000650178 -0.000650173 -0.000760115 -0.00076011 -0.000650173 -0.000650169 -0.00076011 -0.000760106 -0.000760115 -0.00076011 -0.000870069 -0.000870065 -0.00076011 -0.000760106 -0.000870065 -0.000870061 -0.000870079 -0.000870074 -0.000980042 -0.000980037 -0.000870074 -0.000870069 -0.000980037 -0.000980032 -0.000980042 -0.000980037 -0.00109001 -0.00109001 -0.000980037 -0.000980032 -0.00109001 -0.00109001 -0.000870069 -0.000870065 -0.000980032 -0.000980029 -0.000870065 -0.000870061 -0.000980029 -0.000980025 -0.000980032 -0.000980029 -0.00109001 -0.00109 -0.000980029 -0.000980025 -0.00109 -0.00109 -0.000650169 -0.000650163 -0.000760106 -0.000760103 -0.000650163 -0.000650156 -0.000760103 -0.0007601 -0.000760106 -0.000760103 -0.000870061 -0.000870057 -0.000760103 -0.0007601 -0.000870057 -0.000870053 -0.000650156 -0.000650149 -0.0007601 -0.000760096 -0.000650149 -0.000650143 -0.000760096 -0.000760092 -0.0007601 -0.000760096 -0.000870053 -0.00087005 -0.000760096 -0.000760092 -0.00087005 -0.000870046 -0.000870061 -0.000870057 -0.000980025 -0.000980021 -0.000870057 -0.000870053 -0.000980021 -0.000980018 -0.000980025 -0.000980021 -0.00109 -0.00109 -0.000980021 -0.000980018 -0.00109 -0.00108999 -0.000870053 -0.00087005 -0.000980018 -0.000980014 -0.00087005 -0.000870046 -0.000980014 -0.00098001 -0.000980018 -0.000980014 -0.00108999 -0.00108999 -0.000980014 -0.00098001 -0.00108999 -0.00108999 -0.00109001 -0.00109001 -0.00119999 -0.00119999 -0.00109001 -0.00109001 -0.00119999 -0.00119999 -0.00119999 -0.00119999 -0.00130999 -0.00130998 -0.00119999 -0.00119999 -0.00130998 -0.00130998 -0.00109001 -0.00109 -0.00119999 -0.00119999 -0.00109 -0.00109 -0.00119999 -0.00119998 -0.00119999 -0.00119999 -0.00130998 -0.00130998 -0.00119999 -0.00119998 -0.00130998 -0.00130998 -0.00130999 -0.00130998 -0.00141999 -0.00141999 -0.00130998 -0.00130998 -0.00141999 -0.00141999 -0.00141999 -0.00141999 -0.00153 -0.00153 -0.00141999 -0.00141999 -0.00153 -0.00153 -0.00130998 -0.00130998 -0.00141999 -0.00141999 -0.00130998 -0.00130998 -0.00141999 -0.00141999 -0.00141999 -0.00141999 -0.00153 -0.00153 -0.00141999 -0.00141999 -0.00153 -0.00153 -0.00109 -0.00109 -0.00119998 -0.00119998 -0.00109 -0.00108999 -0.00119998 -0.00119998 -0.00119998 -0.00119998 -0.00130998 -0.00130998 -0.00119998 -0.00119998 -0.00130998 -0.00130998 -0.00108999 -0.00108999 -0.00119998 -0.00119998 -0.00108999 -0.00108999 -0.00119998 -0.00119997 -0.00119998 -0.00119998 -0.00130998 -0.00130997 -0.00119998 -0.00119997 -0.00130997 -0.00130997 -0.00130998 -0.00130998 -0.00141999 -0.00141998 -0.00130998 -0.00130998 -0.00141998 -0.00141998 -0.00141999 -0.00141998 -0.00153 -0.00153 -0.00141998 -0.00141998 -0.00153 -0.00153 -0.00130998 -0.00130997 -0.00141998 -0.00141998 -0.00130997 -0.00130997 -0.00141998 -0.00141998 -0.00141998 -0.00141998 -0.00153 -0.00153 -0.00141998 -0.00141998 -0.00153 -0.00153 9.84591e-06 1.53955e-05 -1.27253e-06 -1.63955e-07 1.53955e-05 1.87853e-05 -1.63955e-07 1.06539e-06 -1.27253e-06 -1.63955e-07 -4.77928e-05 -4.81775e-05 -1.63955e-07 1.06539e-06 -4.81775e-05 -4.85586e-05 1.87853e-05 1.99937e-05 1.06539e-06 1.71577e-06 1.99937e-05 2.0115e-05 1.71577e-06 1.72539e-06 1.06539e-06 1.71577e-06 -4.85586e-05 -4.86797e-05 1.71577e-06 1.72539e-06 -4.86797e-05 -4.87791e-05 -4.77928e-05 -4.81775e-05 -0.000122905 -0.000123248 -4.81775e-05 -4.85586e-05 -0.000123248 -0.000123475 -0.000122905 -0.000123248 -0.000217385 -0.00021728 -0.000123248 -0.000123475 -0.00021728 -0.000217151 -4.85586e-05 -4.86797e-05 -0.000123475 -0.000123534 -4.86797e-05 -4.87791e-05 -0.000123534 -0.00012354 -0.000123475 -0.000123534 -0.000217151 -0.000217052 -0.000123534 -0.00012354 -0.000217052 -0.000217033 2.0115e-05 1.99299e-05 1.72539e-06 1.47602e-06 1.99299e-05 1.97441e-05 1.47602e-06 1.30243e-06 1.72539e-06 1.47602e-06 -4.87791e-05 -4.8916e-05 1.47602e-06 1.30243e-06 -4.8916e-05 -4.90009e-05 1.97441e-05 1.96652e-05 1.30243e-06 1.2724e-06 1.96652e-05 1.96838e-05 1.2724e-06 1.30519e-06 1.30243e-06 1.2724e-06 -4.90009e-05 -4.90095e-05 1.2724e-06 1.30519e-06 -4.90095e-05 -4.89885e-05 -4.87791e-05 -4.8916e-05 -0.00012354 -0.000123578 -4.8916e-05 -4.90009e-05 -0.000123578 -0.000123615 -0.00012354 -0.000123578 -0.000217033 -0.000217064 -0.000123578 -0.000123615 -0.000217064 -0.000217089 -4.90009e-05 -4.90095e-05 -0.000123615 -0.000123622 -4.90095e-05 -4.89885e-05 -0.000123622 -0.00012361 -0.000123615 -0.000123622 -0.000217089 -0.000217089 -0.000123622 -0.00012361 -0.000217089 -0.000217075 -0.000217385 -0.00021728 -0.00032213 -0.000322027 -0.00021728 -0.000217151 -0.000322027 -0.000321945 -0.00032213 -0.000322027 -0.000430704 -0.000430717 -0.000322027 -0.000321945 -0.000430717 -0.00043074 -0.000217151 -0.000217052 -0.000321945 -0.000321926 -0.000217052 -0.000217033 -0.000321926 -0.000321954 -0.000321945 -0.000321926 -0.00043074 -0.00043077 -0.000321926 -0.000321954 -0.00043077 -0.000430788 -0.000430704 -0.000430717 -0.000540274 -0.000540288 -0.000430717 -0.00043074 -0.000540288 -0.000540299 -0.000540274 -0.000540288 -0.000650143 -0.000650137 -0.000540288 -0.000540299 -0.000650137 -0.000650129 -0.00043074 -0.00043077 -0.000540299 -0.0005403 -0.00043077 -0.000430788 -0.0005403 -0.000540291 -0.000540299 -0.0005403 -0.000650129 -0.00065012 -0.0005403 -0.000540291 -0.00065012 -0.000650112 -0.000217033 -0.000217064 -0.000321954 -0.000321983 -0.000217064 -0.000217089 -0.000321983 -0.000321987 -0.000321954 -0.000321983 -0.000430788 -0.000430786 -0.000321983 -0.000321987 -0.000430786 -0.000430772 -0.000217089 -0.000217089 -0.000321987 -0.000321974 -0.000217089 -0.000217075 -0.000321974 -0.000321961 -0.000321987 -0.000321974 -0.000430772 -0.00043076 -0.000321974 -0.000321961 -0.00043076 -0.000430752 -0.000430788 -0.000430786 -0.000540291 -0.000540277 -0.000430786 -0.000430772 -0.000540277 -0.000540267 -0.000540291 -0.000540277 -0.000650112 -0.000650106 -0.000540277 -0.000540267 -0.000650106 -0.000650102 -0.000430772 -0.00043076 -0.000540267 -0.000540261 -0.00043076 -0.000430752 -0.000540261 -0.000540256 -0.000540267 -0.000540261 -0.000650102 -0.000650098 -0.000540261 -0.000540256 -0.000650098 -0.000650093 1.96838e-05 1.97231e-05 1.30519e-06 1.33329e-06 1.97231e-05 1.97391e-05 1.33329e-06 1.34186e-06 1.30519e-06 1.33329e-06 -4.89885e-05 -4.89721e-05 1.33329e-06 1.34186e-06 -4.89721e-05 -4.89655e-05 1.97391e-05 1.9739e-05 1.34186e-06 1.34117e-06 1.9739e-05 1.97383e-05 1.34117e-06 1.34113e-06 1.34186e-06 1.34117e-06 -4.89655e-05 -4.89638e-05 1.34117e-06 1.34113e-06 -4.89638e-05 -4.89627e-05 -4.89885e-05 -4.89721e-05 -0.00012361 -0.000123597 -4.89721e-05 -4.89655e-05 -0.000123597 -0.00012359 -0.00012361 -0.000123597 -0.000217075 -0.000217063 -0.000123597 -0.00012359 -0.000217063 -0.000217057 -4.89655e-05 -4.89638e-05 -0.00012359 -0.000123587 -4.89638e-05 -4.89627e-05 -0.000123587 -0.000123586 -0.00012359 -0.000123587 -0.000217057 -0.000217055 -0.000123587 -0.000123586 -0.000217055 -0.000217053 1.97383e-05 1.97408e-05 1.34113e-06 1.34364e-06 1.97408e-05 1.97442e-05 1.34364e-06 1.34651e-06 1.34113e-06 1.34364e-06 -4.89627e-05 -4.89606e-05 1.34364e-06 1.34651e-06 -4.89606e-05 -4.8958e-05 1.97442e-05 1.97464e-05 1.34651e-06 1.34823e-06 1.97464e-05 1.97471e-05 1.34823e-06 1.34876e-06 1.34651e-06 1.34823e-06 -4.8958e-05 -4.89561e-05 1.34823e-06 1.34876e-06 -4.89561e-05 -4.89554e-05 -4.89627e-05 -4.89606e-05 -0.000123586 -0.000123583 -4.89606e-05 -4.8958e-05 -0.000123583 -0.00012358 -0.000123586 -0.000123583 -0.000217053 -0.000217049 -0.000123583 -0.00012358 -0.000217049 -0.000217045 -4.8958e-05 -4.89561e-05 -0.00012358 -0.000123578 -4.89561e-05 -4.89554e-05 -0.000123578 -0.000123576 -0.00012358 -0.000123578 -0.000217045 -0.000217042 -0.000123578 -0.000123576 -0.000217042 -0.000217039 -0.000217075 -0.000217063 -0.000321961 -0.000321953 -0.000217063 -0.000217057 -0.000321953 -0.000321949 -0.000321961 -0.000321953 -0.000430752 -0.000430747 -0.000321953 -0.000321949 -0.000430747 -0.000430743 -0.000217057 -0.000217055 -0.000321949 -0.000321946 -0.000217055 -0.000217053 -0.000321946 -0.000321942 -0.000321949 -0.000321946 -0.000430743 -0.000430738 -0.000321946 -0.000321942 -0.000430738 -0.000430733 -0.000430752 -0.000430747 -0.000540256 -0.000540252 -0.000430747 -0.000430743 -0.000540252 -0.000540246 -0.000540256 -0.000540252 -0.000650093 -0.000650087 -0.000540252 -0.000540246 -0.000650087 -0.000650081 -0.000430743 -0.000430738 -0.000540246 -0.00054024 -0.000430738 -0.000430733 -0.00054024 -0.000540233 -0.000540246 -0.00054024 -0.000650081 -0.000650074 -0.00054024 -0.000540233 -0.000650074 -0.000650066 -0.000217053 -0.000217049 -0.000321942 -0.000321937 -0.000217049 -0.000217045 -0.000321937 -0.000321932 -0.000321942 -0.000321937 -0.000430733 -0.000430727 -0.000321937 -0.000321932 -0.000430727 -0.000430721 -0.000217045 -0.000217042 -0.000321932 -0.000321928 -0.000217042 -0.000217039 -0.000321928 -0.000321923 -0.000321932 -0.000321928 -0.000430721 -0.000430715 -0.000321928 -0.000321923 -0.000430715 -0.000430709 -0.000430733 -0.000430727 -0.000540233 -0.000540226 -0.000430727 -0.000430721 -0.000540226 -0.000540219 -0.000540233 -0.000540226 -0.000650066 -0.000650058 -0.000540226 -0.000540219 -0.000650058 -0.000650049 -0.000430721 -0.000430715 -0.000540219 -0.000540211 -0.000430715 -0.000430709 -0.000540211 -0.000540204 -0.000540219 -0.000540211 -0.000650049 -0.00065004 -0.000540211 -0.000540204 -0.00065004 -0.000650031 -0.000650143 -0.000650137 -0.000760092 -0.000760088 -0.000650137 -0.000650129 -0.000760088 -0.000760083 -0.000760092 -0.000760088 -0.000870046 -0.000870043 -0.000760088 -0.000760083 -0.000870043 -0.00087004 -0.000650129 -0.00065012 -0.000760083 -0.00076008 -0.00065012 -0.000650112 -0.00076008 -0.000760077 -0.000760083 -0.00076008 -0.00087004 -0.000870036 -0.00076008 -0.000760077 -0.000870036 -0.000870033 -0.000870046 -0.000870043 -0.00098001 -0.000980006 -0.000870043 -0.00087004 -0.000980006 -0.000980002 -0.00098001 -0.000980006 -0.00108999 -0.00108998 -0.000980006 -0.000980002 -0.00108998 -0.00108998 -0.00087004 -0.000870036 -0.000980002 -0.000979998 -0.000870036 -0.000870033 -0.000979998 -0.000979995 -0.000980002 -0.000979998 -0.00108998 -0.00108998 -0.00097