# vtk DataFile Version 3.0
#This file was generated by the deal.II library on 2022/11/16 at 21:15:57
ASCII
DATASET UNSTRUCTURED_GRID

POINTS 4096 double
0 0.5 0
0.03125 0.5 0
0 0.53125 0
0.03125 0.53125 0
0.03125 0.5 0
0.0625 0.5 0
0.03125 0.53125 0
0.0625 0.53125 0
0 0.53125 0
0.03125 0.53125 0
0 0.5625 0
0.03125 0.5625 0
0.03125 0.53125 0
0.0625 0.53125 0
0.03125 0.5625 0
0.0625 0.5625 0
0.0625 0.5 0
0.09375 0.5 0
0.0625 0.53125 0
0.09375 0.53125 0
0.09375 0.5 0
0.125 0.5 0
0.09375 0.53125 0
0.125 0.53125 0
0.0625 0.53125 0
0.09375 0.53125 0
0.0625 0.5625 0
0.09375 0.5625 0
0.09375 0.53125 0
0.125 0.53125 0
0.09375 0.5625 0
0.125 0.5625 0
0 0.5625 0
0.03125 0.5625 0
0 0.59375 0
0.03125 0.59375 0
0.03125 0.5625 0
0.0625 0.5625 0
0.03125 0.59375 0
0.0625 0.59375 0
0 0.59375 0
0.03125 0.59375 0
0 0.625 0
0.03125 0.625 0
0.03125 0.59375 0
0.0625 0.59375 0
0.03125 0.625 0
0.0625 0.625 0
0.0625 0.5625 0
0.09375 0.5625 0
0.0625 0.59375 0
0.09375 0.59375 0
0.09375 0.5625 0
0.125 0.5625 0
0.09375 0.59375 0
0.125 0.59375 0
0.0625 0.59375 0
0.09375 0.59375 0
0.0625 0.625 0
0.09375 0.625 0
0.09375 0.59375 0
0.125 0.59375 0
0.09375 0.625 0
0.125 0.625 0
0.125 0.5 0
0.15625 0.5 0
0.125 0.53125 0
0.15625 0.53125 0
0.15625 0.5 0
0.1875 0.5 0
0.15625 0.53125 0
0.1875 0.53125 0
0.125 0.53125 0
0.15625 0.53125 0
0.125 0.5625 0
0.15625 0.5625 0
0.15625 0.53125 0
0.1875 0.53125 0
0.15625 0.5625 0
0.1875 0.5625 0
0.1875 0.5 0
0.21875 0.5 0
0.1875 0.53125 0
0.21875 0.53125 0
0.21875 0.5 0
0.25 0.5 0
0.21875 0.53125 0
0.25 0.53125 0
0.1875 0.53125 0
0.21875 0.53125 0
0.1875 0.5625 0
0.21875 0.5625 0
0.21875 0.53125 0
0.25 0.53125 0
0.21875 0.5625 0
0.25 0.5625 0
0.125 0.5625 0
0.15625 0.5625 0
0.125 0.59375 0
0.15625 0.59375 0
0.15625 0.5625 0
0.1875 0.5625 0
0.15625 0.59375 0
0.1875 0.59375 0
0.125 0.59375 0
0.15625 0.59375 0
0.125 0.625 0
0.15625 0.625 0
0.15625 0.59375 0
0.1875 0.59375 0
0.15625 0.625 0
0.1875 0.625 0
0.1875 0.5625 0
0.21875 0.5625 0
0.1875 0.59375 0
0.21875 0.59375 0
0.21875 0.5625 0
0.25 0.5625 0
0.21875 0.59375 0
0.25 0.59375 0
0.1875 0.59375 0
0.21875 0.59375 0
0.1875 0.625 0
0.21875 0.625 0
0.21875 0.59375 0
0.25 0.59375 0
0.21875 0.625 0
0.25 0.625 0
0 0.625 0
0.03125 0.625 0
0 0.65625 0
0.03125 0.65625 0
0.03125 0.625 0
0.0625 0.625 0
0.03125 0.65625 0
0.0625 0.65625 0
0 0.65625 0
0.03125 0.65625 0
0 0.6875 0
0.03125 0.6875 0
0.03125 0.65625 0
0.0625 0.65625 0
0.03125 0.6875 0
0.0625 0.6875 0
0.0625 0.625 0
0.09375 0.625 0
0.0625 0.65625 0
0.09375 0.65625 0
0.09375 0.625 0
0.125 0.625 0
0.09375 0.65625 0
0.125 0.65625 0
0.0625 0.65625 0
0.09375 0.65625 0
0.0625 0.6875 0
0.09375 0.6875 0
0.09375 0.65625 0
0.125 0.65625 0
0.09375 0.6875 0
0.125 0.6875 0
0 0.6875 0
0.03125 0.6875 0
0 0.71875 0
0.03125 0.71875 0
0.03125 0.6875 0
0.0625 0.6875 0
0.03125 0.71875 0
0.0625 0.71875 0
0 0.71875 0
0.03125 0.71875 0
0 0.75 0
0.03125 0.75 0
0.03125 0.71875 0
0.0625 0.71875 0
0.03125 0.75 0
0.0625 0.75 0
0.0625 0.6875 0
0.09375 0.6875 0
0.0625 0.71875 0
0.09375 0.71875 0
0.09375 0.6875 0
0.125 0.6875 0
0.09375 0.71875 0
0.125 0.71875 0
0.0625 0.71875 0
0.09375 0.71875 0
0.0625 0.75 0
0.09375 0.75 0
0.09375 0.71875 0
0.125 0.71875 0
0.09375 0.75 0
0.125 0.75 0
0.125 0.625 0
0.15625 0.625 0
0.125 0.65625 0
0.15625 0.65625 0
0.15625 0.625 0
0.1875 0.625 0
0.15625 0.65625 0
0.1875 0.65625 0
0.125 0.65625 0
0.15625 0.65625 0
0.125 0.6875 0
0.15625 0.6875 0
0.15625 0.65625 0
0.1875 0.65625 0
0.15625 0.6875 0
0.1875 0.6875 0
0.1875 0.625 0
0.21875 0.625 0
0.1875 0.65625 0
0.21875 0.65625 0
0.21875 0.625 0
0.25 0.625 0
0.21875 0.65625 0
0.25 0.65625 0
0.1875 0.65625 0
0.21875 0.65625 0
0.1875 0.6875 0
0.21875 0.6875 0
0.21875 0.65625 0
0.25 0.65625 0
0.21875 0.6875 0
0.25 0.6875 0
0.125 0.6875 0
0.15625 0.6875 0
0.125 0.71875 0
0.15625 0.71875 0
0.15625 0.6875 0
0.1875 0.6875 0
0.15625 0.71875 0
0.1875 0.71875 0
0.125 0.71875 0
0.15625 0.71875 0
0.125 0.75 0
0.15625 0.75 0
0.15625 0.71875 0
0.1875 0.71875 0
0.15625 0.75 0
0.1875 0.75 0
0.1875 0.6875 0
0.21875 0.6875 0
0.1875 0.71875 0
0.21875 0.71875 0
0.21875 0.6875 0
0.25 0.6875 0
0.21875 0.71875 0
0.25 0.71875 0
0.1875 0.71875 0
0.21875 0.71875 0
0.1875 0.75 0
0.21875 0.75 0
0.21875 0.71875 0
0.25 0.71875 0
0.21875 0.75 0
0.25 0.75 0
0.25 0.5 0
0.28125 0.5 0
0.25 0.53125 0
0.28125 0.53125 0
0.28125 0.5 0
0.3125 0.5 0
0.28125 0.53125 0
0.3125 0.53125 0
0.25 0.53125 0
0.28125 0.53125 0
0.25 0.5625 0
0.28125 0.5625 0
0.28125 0.53125 0
0.3125 0.53125 0
0.28125 0.5625 0
0.3125 0.5625 0
0.3125 0.5 0
0.34375 0.5 0
0.3125 0.53125 0
0.34375 0.53125 0
0.34375 0.5 0
0.375 0.5 0
0.34375 0.53125 0
0.375 0.53125 0
0.3125 0.53125 0
0.34375 0.53125 0
0.3125 0.5625 0
0.34375 0.5625 0
0.34375 0.53125 0
0.375 0.53125 0
0.34375 0.5625 0
0.375 0.5625 0
0.25 0.5625 0
0.28125 0.5625 0
0.25 0.59375 0
0.28125 0.59375 0
0.28125 0.5625 0
0.3125 0.5625 0
0.28125 0.59375 0
0.3125 0.59375 0
0.25 0.59375 0
0.28125 0.59375 0
0.25 0.625 0
0.28125 0.625 0
0.28125 0.59375 0
0.3125 0.59375 0
0.28125 0.625 0
0.3125 0.625 0
0.3125 0.5625 0
0.34375 0.5625 0
0.3125 0.59375 0
0.34375 0.59375 0
0.34375 0.5625 0
0.375 0.5625 0
0.34375 0.59375 0
0.375 0.59375 0
0.3125 0.59375 0
0.34375 0.59375 0
0.3125 0.625 0
0.34375 0.625 0
0.34375 0.59375 0
0.375 0.59375 0
0.34375 0.625 0
0.375 0.625 0
0.375 0.5 0
0.40625 0.5 0
0.375 0.53125 0
0.40625 0.53125 0
0.40625 0.5 0
0.4375 0.5 0
0.40625 0.53125 0
0.4375 0.53125 0
0.375 0.53125 0
0.40625 0.53125 0
0.375 0.5625 0
0.40625 0.5625 0
0.40625 0.53125 0
0.4375 0.53125 0
0.40625 0.5625 0
0.4375 0.5625 0
0.4375 0.5 0
0.46875 0.5 0
0.4375 0.53125 0
0.46875 0.53125 0
0.46875 0.5 0
0.5 0.5 0
0.46875 0.53125 0
0.5 0.53125 0
0.4375 0.53125 0
0.46875 0.53125 0
0.4375 0.5625 0
0.46875 0.5625 0
0.46875 0.53125 0
0.5 0.53125 0
0.46875 0.5625 0
0.5 0.5625 0
0.375 0.5625 0
0.40625 0.5625 0
0.375 0.59375 0
0.40625 0.59375 0
0.40625 0.5625 0
0.4375 0.5625 0
0.40625 0.59375 0
0.4375 0.59375 0
0.375 0.59375 0
0.40625 0.59375 0
0.375 0.625 0
0.40625 0.625 0
0.40625 0.59375 0
0.4375 0.59375 0
0.40625 0.625 0
0.4375 0.625 0
0.4375 0.5625 0
0.46875 0.5625 0
0.4375 0.59375 0
0.46875 0.59375 0
0.46875 0.5625 0
0.5 0.5625 0
0.46875 0.59375 0
0.5 0.59375 0
0.4375 0.59375 0
0.46875 0.59375 0
0.4375 0.625 0
0.46875 0.625 0
0.46875 0.59375 0
0.5 0.59375 0
0.46875 0.625 0
0.5 0.625 0
0.25 0.625 0
0.28125 0.625 0
0.25 0.65625 0
0.28125 0.65625 0
0.28125 0.625 0
0.3125 0.625 0
0.28125 0.65625 0
0.3125 0.65625 0
0.25 0.65625 0
0.28125 0.65625 0
0.25 0.6875 0
0.28125 0.6875 0
0.28125 0.65625 0
0.3125 0.65625 0
0.28125 0.6875 0
0.3125 0.6875 0
0.3125 0.625 0
0.34375 0.625 0
0.3125 0.65625 0
0.34375 0.65625 0
0.34375 0.625 0
0.375 0.625 0
0.34375 0.65625 0
0.375 0.65625 0
0.3125 0.65625 0
0.34375 0.65625 0
0.3125 0.6875 0
0.34375 0.6875 0
0.34375 0.65625 0
0.375 0.65625 0
0.34375 0.6875 0
0.375 0.6875 0
0.25 0.6875 0
0.28125 0.6875 0
0.25 0.71875 0
0.28125 0.71875 0
0.28125 0.6875 0
0.3125 0.6875 0
0.28125 0.71875 0
0.3125 0.71875 0
0.25 0.71875 0
0.28125 0.71875 0
0.25 0.75 0
0.28125 0.75 0
0.28125 0.71875 0
0.3125 0.71875 0
0.28125 0.75 0
0.3125 0.75 0
0.3125 0.6875 0
0.34375 0.6875 0
0.3125 0.71875 0
0.34375 0.71875 0
0.34375 0.6875 0
0.375 0.6875 0
0.34375 0.71875 0
0.375 0.71875 0
0.3125 0.71875 0
0.34375 0.71875 0
0.3125 0.75 0
0.34375 0.75 0
0.34375 0.71875 0
0.375 0.71875 0
0.34375 0.75 0
0.375 0.75 0
0.375 0.625 0
0.40625 0.625 0
0.375 0.65625 0
0.40625 0.65625 0
0.40625 0.625 0
0.4375 0.625 0
0.40625 0.65625 0
0.4375 0.65625 0
0.375 0.65625 0
0.40625 0.65625 0
0.375 0.6875 0
0.40625 0.6875 0
0.40625 0.65625 0
0.4375 0.65625 0
0.40625 0.6875 0
0.4375 0.6875 0
0.4375 0.625 0
0.46875 0.625 0
0.4375 0.65625 0
0.46875 0.65625 0
0.46875 0.625 0
0.5 0.625 0
0.46875 0.65625 0
0.5 0.65625 0
0.4375 0.65625 0
0.46875 0.65625 0
0.4375 0.6875 0
0.46875 0.6875 0
0.46875 0.65625 0
0.5 0.65625 0
0.46875 0.6875 0
0.5 0.6875 0
0.375 0.6875 0
0.40625 0.6875 0
0.375 0.71875 0
0.40625 0.71875 0
0.40625 0.6875 0
0.4375 0.6875 0
0.40625 0.71875 0
0.4375 0.71875 0
0.375 0.71875 0
0.40625 0.71875 0
0.375 0.75 0
0.40625 0.75 0
0.40625 0.71875 0
0.4375 0.71875 0
0.40625 0.75 0
0.4375 0.75 0
0.4375 0.6875 0
0.46875 0.6875 0
0.4375 0.71875 0
0.46875 0.71875 0
0.46875 0.6875 0
0.5 0.6875 0
0.46875 0.71875 0
0.5 0.71875 0
0.4375 0.71875 0
0.46875 0.71875 0
0.4375 0.75 0
0.46875 0.75 0
0.46875 0.71875 0
0.5 0.71875 0
0.46875 0.75 0
0.5 0.75 0
0 0.75 0
0.03125 0.75 0
0 0.78125 0
0.03125 0.78125 0
0.03125 0.75 0
0.0625 0.75 0
0.03125 0.78125 0
0.0625 0.78125 0
0 0.78125 0
0.03125 0.78125 0
0 0.8125 0
0.03125 0.8125 0
0.03125 0.78125 0
0.0625 0.78125 0
0.03125 0.8125 0
0.0625 0.8125 0
0.0625 0.75 0
0.09375 0.75 0
0.0625 0.78125 0
0.09375 0.78125 0
0.09375 0.75 0
0.125 0.75 0
0.09375 0.78125 0
0.125 0.78125 0
0.0625 0.78125 0
0.09375 0.78125 0
0.0625 0.8125 0
0.09375 0.8125 0
0.09375 0.78125 0
0.125 0.78125 0
0.09375 0.8125 0
0.125 0.8125 0
0 0.8125 0
0.03125 0.8125 0
0 0.84375 0
0.03125 0.84375 0
0.03125 0.8125 0
0.0625 0.8125 0
0.03125 0.84375 0
0.0625 0.84375 0
0 0.84375 0
0.03125 0.84375 0
0 0.875 0
0.03125 0.875 0
0.03125 0.84375 0
0.0625 0.84375 0
0.03125 0.875 0
0.0625 0.875 0
0.0625 0.8125 0
0.09375 0.8125 0
0.0625 0.84375 0
0.09375 0.84375 0
0.09375 0.8125 0
0.125 0.8125 0
0.09375 0.84375 0
0.125 0.84375 0
0.0625 0.84375 0
0.09375 0.84375 0
0.0625 0.875 0
0.09375 0.875 0
0.09375 0.84375 0
0.125 0.84375 0
0.09375 0.875 0
0.125 0.875 0
0.125 0.75 0
0.15625 0.75 0
0.125 0.78125 0
0.15625 0.78125 0
0.15625 0.75 0
0.1875 0.75 0
0.15625 0.78125 0
0.1875 0.78125 0
0.125 0.78125 0
0.15625 0.78125 0
0.125 0.8125 0
0.15625 0.8125 0
0.15625 0.78125 0
0.1875 0.78125 0
0.15625 0.8125 0
0.1875 0.8125 0
0.1875 0.75 0
0.21875 0.75 0
0.1875 0.78125 0
0.21875 0.78125 0
0.21875 0.75 0
0.25 0.75 0
0.21875 0.78125 0
0.25 0.78125 0
0.1875 0.78125 0
0.21875 0.78125 0
0.1875 0.8125 0
0.21875 0.8125 0
0.21875 0.78125 0
0.25 0.78125 0
0.21875 0.8125 0
0.25 0.8125 0
0.125 0.8125 0
0.15625 0.8125 0
0.125 0.84375 0
0.15625 0.84375 0
0.15625 0.8125 0
[...]
POINT_DATA 4096
SCALARS x_dis double 1
LOOKUP_TABLE default
-7.06581e-14 -7.06581e-14 1.6032e-14 1.6032e-14 -7.06581e-14 -7.06581e-14 1.6032e-14 1.6032e-14 1.6032e-14 1.6032e-14 8.66303e-13 8.66303e-13 1.6032e-14 1.6032e-14 8.66303e-13 8.66304e-13 -7.06581e-14 -7.06581e-14 1.6032e-14 1.6032e-14 -7.06581e-14 -7.06581e-14 1.6032e-14 1.6032e-14 1.6032e-14 1.6032e-14 8.66304e-13 8.66303e-13 1.6032e-14 1.6032e-14 8.66303e-13 8.66303e-13 8.66303e-13 8.66303e-13 -6.28624e-12 -6.28624e-12 8.66303e-13 8.66304e-13 -6.28624e-12 -6.28624e-12 -6.28624e-12 -6.28624e-12 3.17499e-11 3.17499e-11 -6.28624e-12 -6.28624e-12 3.17499e-11 3.17499e-11 8.66304e-13 8.66303e-13 -6.28624e-12 -6.28624e-12 8.66303e-13 8.66303e-13 -6.28624e-12 -6.28624e-12 -6.28624e-12 -6.28624e-12 3.17499e-11 3.17499e-11 -6.28624e-12 -6.28624e-12 3.17499e-11 3.17499e-11 -7.06581e-14 -7.06581e-14 1.6032e-14 1.6032e-14 -7.06581e-14 -7.06581e-14 1.6032e-14 1.6032e-14 1.6032e-14 1.6032e-14 8.66303e-13 8.66303e-13 1.6032e-14 1.6032e-14 8.66303e-13 8.66303e-13 -7.06581e-14 -7.06581e-14 1.6032e-14 1.6032e-14 -7.06581e-14 -7.06581e-14 1.6032e-14 1.6032e-14 1.6032e-14 1.6032e-14 8.66303e-13 8.66303e-13 1.6032e-14 1.6032e-14 8.66303e-13 8.66304e-13 8.66303e-13 8.66303e-13 -6.28624e-12 -6.28624e-12 8.66303e-13 8.66303e-13 -6.28624e-12 -6.28624e-12 -6.28624e-12 -6.28624e-12 3.17499e-11 3.17499e-11 -6.28624e-12 -6.28624e-12 3.17499e-11 3.17499e-11 8.66303e-13 8.66303e-13 -6.28624e-12 -6.28624e-12 8.66303e-13 8.66304e-13 -6.28624e-12 -6.28624e-12 -6.28624e-12 -6.28624e-12 3.17499e-11 3.17499e-11 -6.28624e-12 -6.28624e-12 3.17499e-11 3.17499e-11 3.17499e-11 3.17499e-11 -1.32426e-10 -1.32426e-10 3.17499e-11 3.17499e-11 -1.32426e-10 -1.32426e-10 -1.32426e-10 -1.32426e-10 4.68625e-10 4.68625e-10 -1.32426e-10 -1.32426e-10 4.68625e-10 4.68625e-10 3.17499e-11 3.17499e-11 -1.32426e-10 -1.32426e-10 3.17499e-11 3.17499e-11 -1.32426e-10 -1.32426e-10 -1.32426e-10 -1.32426e-10 4.68625e-10 4.68625e-10 -1.32426e-10 -1.32426e-10 4.68625e-10 4.68625e-10 4.68625e-10 4.68625e-10 -1.35096e-09 -1.35096e-09 4.68625e-10 4.68625e-10 -1.35096e-09 -1.35096e-09 -1.35096e-09 -1.35096e-09 2.59476e-09 2.59476e-09 -1.35096e-09 -1.35096e-09 2.59476e-09 2.59476e-09 4.68625e-10 4.68625e-10 -1.35096e-09 -1.35096e-09 4.68625e-10 4.68625e-10 -1.35096e-09 -1.35096e-09 -1.35096e-09 -1.35096e-09 2.59476e-09 2.59476e-09 -1.35096e-09 -1.35096e-09 2.59476e-09 2.59476e-09 3.17499e-11 3.17499e-11 -1.32426e-10 -1.32426e-10 3.17499e-11 3.17499e-11 -1.32426e-10 -1.32426e-10 -1.32426e-10 -1.32426e-10 4.68625e-10 4.68625e-10 -1.32426e-10 -1.32426e-10 4.68625e-10 4.68625e-10 3.17499e-11 3.17499e-11 -1.32426e-10 -1.32426e-10 3.17499e-11 3.17499e-11 -1.32426e-10 -1.32426e-10 -1.32426e-10 -1.32426e-10 4.68625e-10 4.68625e-10 -1.32426e-10 -1.32426e-10 4.68625e-10 4.68625e-10 4.68625e-10 4.68625e-10 -1.35096e-09 -1.35096e-09 4.68625e-10 4.68625e-10 -1.35096e-09 -1.35096e-09 -1.35096e-09 -1.35096e-09 2.59476e-09 2.59476e-09 -1.35096e-09 -1.35096e-09 2.59476e-09 2.59476e-09 4.68625e-10 4.68625e-10 -1.35096e-09 -1.35096e-09 4.68625e-10 4.68625e-10 -1.35096e-09 -1.35096e-09 -1.35096e-09 -1.35096e-09 2.59476e-09 2.59476e-09 -1.35096e-09 -1.35096e-09 2.59476e-09 2.59476e-09 -7.06581e-14 -7.06581e-14 1.6032e-14 1.60319e-14 -7.06581e-14 -7.06581e-14 1.60319e-14 1.60319e-14 1.6032e-14 1.60319e-14 8.66304e-13 8.66303e-13 1.60319e-14 1.60319e-14 8.66303e-13 8.66304e-13 -7.06581e-14 -7.06581e-14 1.60319e-14 1.60334e-14 -7.06581e-14 -7.06581e-14 1.60334e-14 1.60242e-14 1.60319e-14 1.60334e-14 8.66304e-13 8.66302e-13 1.60334e-14 1.60242e-14 8.66302e-13 8.66303e-13 8.66304e-13 8.66303e-13 -6.28624e-12 -6.28624e-12 8.66303e-13 8.66304e-13 -6.28624e-12 -6.28624e-12 -6.28624e-12 -6.28624e-12 3.17499e-11 3.17499e-11 -6.28624e-12 -6.28624e-12 3.17499e-11 3.17499e-11 8.66304e-13 8.66302e-13 -6.28624e-12 -6.28624e-12 8.66302e-13 8.66303e-13 -6.28624e-12 -6.28624e-12 -6.28624e-12 -6.28624e-12 3.17499e-11 3.17499e-11 -6.28624e-12 -6.28624e-12 3.17499e-11 3.17499e-11 -7.06581e-14 -7.06584e-14 1.60242e-14 1.60546e-14 -7.06584e-14 -7.06569e-14 1.60546e-14 1.60416e-14 1.60242e-14 1.60546e-14 8.66303e-13 8.66326e-13 1.60546e-14 1.60416e-14 8.66326e-13 8.66179e-13 -7.06569e-14 -7.06612e-14 1.60416e-14 1.55129e-14 -7.06612e-14 -7.06592e-14 1.55129e-14 1.90587e-14 1.60416e-14 1.55129e-14 8.66179e-13 8.66742e-13 1.55129e-14 1.90587e-14 8.66742e-13 8.65091e-13 8.66303e-13 8.66326e-13 -6.28624e-12 -6.28625e-12 8.66326e-13 8.66179e-13 -6.28625e-12 -6.28618e-12 -6.28624e-12 -6.28625e-12 3.17499e-11 3.17499e-11 -6.28625e-12 -6.28618e-12 3.17499e-11 3.17499e-11 8.66179e-13 8.66742e-13 -6.28618e-12 -6.28647e-12 8.66742e-13 8.65091e-13 -6.28647e-12 -6.28591e-12 -6.28618e-12 -6.28647e-12 3.17499e-11 3.175e-11 -6.28647e-12 -6.28591e-12 3.175e-11 3.17498e-11 3.17499e-11 3.17499e-11 -1.32426e-10 -1.32426e-10 3.17499e-11 3.17499e-11 -1.32426e-10 -1.32426e-10 -1.32426e-10 -1.32426e-10 4.68625e-10 4.68625e-10 -1.32426e-10 -1.32426e-10 4.68625e-10 4.68625e-10 3.17499e-11 3.17499e-11 -1.32426e-10 -1.32426e-10 3.17499e-11 3.17499e-11 -1.32426e-10 -1.32426e-10 -1.32426e-10 -1.32426e-10 4.68625e-10 4.68625e-10 -1.32426e-10 -1.32426e-10 4.68625e-10 4.68625e-10 4.68625e-10 4.68625e-10 -1.35096e-09 -1.35096e-09 4.68625e-10 4.68625e-10 -1.35096e-09 -1.35096e-09 -1.35096e-09 -1.35096e-09 2.59476e-09 2.59476e-09 -1.35096e-09 -1.35096e-09 2.59476e-09 2.59476e-09 4.68625e-10 4.68625e-10 -1.35096e-09 -1.35096e-09 4.68625e-10 4.68625e-10 -1.35096e-09 -1.35096e-09 -1.35096e-09 -1.35096e-09 2.59476e-09 2.59476e-09 -1.35096e-09 -1.35096e-09 2.59476e-09 2.59476e-09 3.17499e-11 3.17499e-11 -1.32426e-10 -1.32426e-10 3.17499e-11 3.17499e-11 -1.32426e-10 -1.32426e-10 -1.32426e-10 -1.32426e-10 4.68625e-10 4.68625e-10 -1.32426e-10 -1.32426e-10 4.68625e-10 4.68625e-10 3.17499e-11 3.175e-11 -1.32426e-10 -1.32426e-10 3.175e-11 3.17498e-11 -1.32426e-10 -1.32426e-10 -1.32426e-10 -1.32426e-10 4.68625e-10 4.68625e-10 -1.32426e-10 -1.32426e-10 4.68625e-10 4.68625e-10 4.68625e-10 4.68625e-10 -1.35096e-09 -1.35096e-09 4.68625e-10 4.68625e-10 -1.35096e-09 -1.35096e-09 -1.35096e-09 -1.35096e-09 2.59476e-09 2.59476e-09 -1.35096e-09 -1.35096e-09 2.59476e-09 2.59476e-09 4.68625e-10 4.68625e-10 -1.35096e-09 -1.35096e-09 4.68625e-10 4.68625e-10 -1.35096e-09 -1.35096e-09 -1.35096e-09 -1.35096e-09 2.59476e-09 2.59476e-09 -1.35096e-09 -1.35096e-09 2.59476e-09 2.59476e-09 2.59476e-09 2.59476e-09 1.42316e-09 1.42318e-09 2.59476e-09 2.59476e-09 1.42318e-09 1.42318e-09 1.42316e-09 1.42318e-09 -4.42521e-08 -4.42522e-08 1.42318e-09 1.42318e-09 -4.42522e-08 -4.42522e-08 2.59476e-09 2.59476e-09 1.42318e-09 1.42318e-09 2.59476e-09 2.59476e-09 1.42318e-09 1.42317e-09 1.42318e-09 1.42318e-09 -4.42522e-08 -4.42522e-08 1.42318e-09 1.42317e-09 -4.42522e-08 -4.42522e-08 -4.42521e-08 -4.42522e-08 2.53628e-07 2.53628e-07 -4.42522e-08 -4.42522e-08 2.53628e-07 2.53628e-07 2.53628e-07 2.53628e-07 -8.90204e-07 -8.90205e-07 2.53628e-07 2.53628e-07 -8.90205e-07 -8.90204e-07 -4.42522e-08 -4.42522e-08 2.53628e-07 2.53628e-07 -4.42522e-08 -4.42522e-08 2.53628e-07 2.53628e-07 2.53628e-07 2.53628e-07 -8.90204e-07 -8.90205e-07 2.53628e-07 2.53628e-07 -8.90205e-07 -8.90204e-07 2.59476e-09 2.59476e-09 1.42317e-09 1.42318e-09 2.59476e-09 2.59476e-09 1.42318e-09 1.42317e-09 1.42317e-09 1.42318e-09 -4.42522e-08 -4.42522e-08 1.42318e-09 1.42317e-09 -4.42522e-08 -4.42522e-08 2.59476e-09 2.59476e-09 1.42317e-09 1.42317e-09 2.59476e-09 2.59476e-09 1.42317e-09 1.42317e-09 1.42317e-09 1.42317e-09 -4.42522e-08 -4.42522e-08 1.42317e-09 1.42317e-09 -4.42522e-08 -4.42522e-08 -4.42522e-08 -4.42522e-08 2.53628e-07 2.53628e-07 -4.42522e-08 -4.42522e-08 2.53628e-07 2.53628e-07 2.53628e-07 2.53628e-07 -8.90204e-07 -8.90205e-07 2.53628e-07 2.53628e-07 -8.90205e-07 -8.90205e-07 -4.42522e-08 -4.42522e-08 2.53628e-07 2.53628e-07 -4.42522e-08 -4.42522e-08 2.53628e-07 2.53628e-07 2.53628e-07 2.53628e-07 -8.90205e-07 -8.90205e-07 2.53628e-07 2.53628e-07 -8.90205e-07 -8.90205e-07 -8.90204e-07 -8.90205e-07 1.36208e-06 1.36208e-06 -8.90205e-07 -8.90204e-07 1.36208e-06 1.36207e-06 1.36208e-06 1.36208e-06 6.36524e-06 6.36521e-06 1.36208e-06 1.36207e-06 6.36521e-06 6.36528e-06 -8.90204e-07 -8.90205e-07 1.36207e-06 1.36207e-06 -8.90205e-07 -8.90204e-07 1.36207e-06 1.36207e-06 1.36207e-06 1.36207e-06 6.36528e-06 6.36528e-06 1.36207e-06 1.36207e-06 6.36528e-06 6.36528e-06 6.36524e-06 6.36521e-06 -4.55222e-05 -4.55214e-05 6.36521e-06 6.36528e-06 -4.55214e-05 -4.55213e-05 -4.55222e-05 -4.55214e-05 -0.00015 -0.00015 -4.55214e-05 -4.55213e-05 -0.00015 -0.00015 6.36528e-06 6.36528e-06 -4.55213e-05 -4.55213e-05 6.36528e-06 6.36528e-06 -4.55213e-05 -4.55213e-05 -4.55213e-05 -4.55213e-05 -0.00015 -0.00015 -4.55213e-05 -4.55213e-05 -0.00015 -0.00015 -8.90204e-07 -8.90205e-07 1.36207e-06 1.36207e-06 -8.90205e-07 -8.90205e-07 1.36207e-06 1.36207e-06 1.36207e-06 1.36207e-06 6.36528e-06 6.36528e-06 1.36207e-06 1.36207e-06 6.36528e-06 6.36528e-06 -8.90205e-07 -8.90205e-07 1.36207e-06 1.36207e-06 -8.90205e-07 -8.90205e-07 1.36207e-06 1.36207e-06 1.36207e-06 1.36207e-06 6.36528e-06 6.36528e-06 1.36207e-06 1.36207e-06 6.36528e-06 6.36528e-06 6.36528e-06 6.36528e-06 -4.55213e-05 -4.55213e-05 6.36528e-06 6.36528e-06 -4.55213e-05 -4.55213e-05 -4.55213e-05 -4.55213e-05 -0.00015 -0.00015 -4.55213e-05 -4.55213e-05 -0.00015 -0.00015 6.36528e-06 6.36528e-06 -4.55213e-05 -4.55213e-05 6.36528e-06 6.36528e-06 -4.55213e-05 -4.55213e-05 -4.55213e-05 -4.55213e-05 -0.00015 -0.00015 -4.55213e-05 -4.55213e-05 -0.00015 -0.00015 2.59476e-09 2.59476e-09 1.42317e-09 1.42317e-09 2.59476e-09 2.59476e-09 1.42317e-09 1.42317e-09 1.42317e-09 1.42317e-09 -4.42522e-08 -4.42522e-08 1.42317e-09 1.42317e-09 -4.42522e-08 -4.42522e-08 2.59476e-09 2.59476e-09 1.42317e-09 1.42317e-09 2.59476e-09 2.59476e-09 1.42317e-09 1.42317e-09 1.42317e-09 1.42317e-09 -4.42522e-08 -4.42522e-08 1.42317e-09 1.42317e-09 -4.42522e-08 -4.42522e-08 -4.42522e-08 -4.42522e-08 2.53628e-07 2.53628e-07 -4.42522e-08 -4.42522e-08 2.53628e-07 2.53628e-07 2.53628e-07 2.53628e-07 -8.90205e-07 -8.90205e-07 2.53628e-07 2.53628e-07 -8.90205e-07 -8.90205e-07 -4.42522e-08 -4.42522e-08 2.53628e-07 2.53628e-07 -4.42522e-08 -4.42522e-08 2.53628e-07 2.53628e-07 2.53628e-07 2.53628e-07 -8.90205e-07 -8.90205e-07 2.53628e-07 2.53628e-07 -8.90205e-07 -8.90205e-07 2.59476e-09 2.59476e-09 1.42317e-09 1.42317e-09 2.59476e-09 2.59476e-09 1.42317e-09 1.42317e-09 1.42317e-09 1.42317e-09 -4.42522e-08 -4.42522e-08 1.42317e-09 1.42317e-09 -4.42522e-08 -4.42522e-08 2.59476e-09 2.59476e-09 1.42317e-09 1.42317e-09 2.59476e-09 2.59476e-09 1.42317e-09 1.42317e-09 1.42317e-09 1.42317e-09 -4.42522e-08 -4.42522e-08 1.42317e-09 1.42317e-09 -4.42522e-08 -4.42522e-08 -4.42522e-08 -4.42522e-08 2.53628e-07 2.53628e-07 -4.42522e-08 -4.42522e-08 2.53628e-07 2.53628e-07 2.53628e-07 2.53628e-07 -8.90205e-07 -8.90205e-07 2.53628e-07 2.53628e-07 -8.90205e-07 -8.90205e-07 -4.42522e-08 -4.42522e-08 2.53628e-07 2.53628e-07 -4.42522e-08 -4.42522e-08 2.53628e-07 2.53628e-07 2.53628e-07 2.53628e-07 -8.90205e-07 -8.90205e-07 2.53628e-07 2.53628e-07 -8.90205e-07 -8.90205e-07 -8.90205e-07 -8.90205e-07 1.36207e-06 1.36207e-06 -8.90205e-07 -8.90205e-07 1.36207e-06 1.36207e-06 1.36207e-06 1.36207e-06 6.36528e-06 6.36528e-06 1.36207e-06 1.36207e-06 6.36528e-06 6.36528e-06 -8.90205e-07 -8.90205e-07 1.36207e-06 1.36207e-06 -8.90205e-07 -8.90205e-07 1.36207e-06 1.36207e-06 1.36207e-06 1.36207e-06 6.36528e-06 6.36528e-06 1.36207e-06 1.36207e-06 6.36528e-06 6.36528e-06 6.36528e-06 6.36528e-06 -4.55213e-05 -4.55213e-05 6.36528e-06 6.36528e-06 -4.55213e-05 -4.55213e-05 -4.55213e-05 -4.55213e-05 -0.00015 -0.00015 -4.55213e-05 -4.55213e-05 -0.00015 -0.00015 6.36528e-06 6.36528e-06 -4.55213e-05 -4.55213e-05 6.36528e-06 6.36528e-06 -4.55213e-05 -4.55213e-05 -4.55213e-05 -4.55213e-05 -0.00015 -0.00015 -4.55213e-05 -4.55213e-05 -0.00015 -0.00015 -8.90205e-07 -8.90205e-07 1.36207e-06 1.36207e-06 -8.90205e-07 -8.90205e-07 1.36207e-06 1.36207e-06 1.36207e-06 1.36207e-06 6.36528e-06 6.36528e-06 1.36207e-06 1.36207e-06 6.36528e-06 6.36528e-06 -8.90205e-07 -8.90205e-07 1.36207e-06 1.36207e-06 -8.90205e-07 -8.90205e-07 1.36207e-06 1.36207e-06 1.36207e-06 1.36207e-06 6.36528e-06 6.36528e-06 1.36207e-06 1.36207e-06 6.36528e-06 6.36528e-06 6.36528e-06 6.36528e-06 -4.55213e-05 -4.55213e-05 6.36528e-06 6.36528e-06 -4.55213e-05 -4.55213e-05 -4.55213e-05 -4.55213e-05 -0.00015 -0.00015 -4.55213e-05 -4.55213e-05 -0.00015 -0.00015 6.36528e-06 6.36528e-06 -4.55213e-05 -4.55213e-05 6.36528e-06 6.36528e-06 -4.55213e-05 -4.55213e-05 -4.55213e-05 -4.55213e-05 -0.00015 -0.00015 -4.55213e-05 -4.55213e-05 -0.00015 -0.00015 -7.06592e-14 -1.92951e-13 1.90587e-14 6.20586e-14 -1.92951e-13 -1.28477e-13 6.20586e-14 4.92871e-14 1.90587e-14 6.20586e-14 8.65091e-13 8.50989e-13 6.20586e-14 4.92871e-14 8.50989e-13 8.53496e-13 -1.28477e-13 -1.42583e-13 4.92871e-14 5.09169e-14 -1.42583e-13 -1.41695e-13 5.09169e-14 5.09617e-14 4.92871e-14 5.09169e-14 8.53496e-13 8.53758e-13 5.09169e-14 5.09617e-14 8.53758e-13 8.53496e-13 8.65091e-13 8.50989e-13 -6.28591e-12 -6.28159e-12 8.50989e-13 8.53496e-13 -6.28159e-12 -6.28202e-12 -6.28591e-12 -6.28159e-12 3.17498e-11 3.17486e-11 -6.28159e-12 -6.28202e-12 3.17486e-11 3.17487e-11 8.53496e-13 8.53758e-13 -6.28202e-12 -6.28231e-12 8.53758e-13 8.53496e-13 -6.28231e-12 -6.28219e-12 -6.28202e-12 -6.28231e-12 3.17487e-11 3.17488e-11 -6.28231e-12 -6.28219e-12 3.17488e-11 3.17488e-11 -1.41695e-13 -1.41074e-13 5.09617e-14 5.08828e-14 -1.41074e-13 -1.41393e-13 5.08828e-14 5.09071e-14 5.09617e-14 5.08828e-14 8.53496e-13 8.53554e-13 5.08828e-14 5.09071e-14 8.53554e-13 8.53561e-13 -1.41393e-13 -1.41299e-13 5.09071e-14 5.09014e-14 -1.41299e-13 -1.41319e-13 5.09014e-14 5.09028e-14 5.09071e-14 5.09014e-14 8.53561e-13 8.53551e-13 5.09014e-14 5.09028e-14 8.53551e-13 8.53555e-13 8.53496e-13 8.53554e-13 -6.28219e-12 -6.2822e-12 8.53554e-13 8.53561e-13 -6.2822e-12 -6.28221e-12 -6.28219e-12 -6.2822e-12 3.17488e-11 3.17488e-11 -6.2822e-12 -6.28221e-12 3.17488e-11 3.17488e-11 8.53561e-13 8.53551e-13 -6.28221e-12 -6.2822e-12 8.53551e-13 8.53555e-13 -6.2822e-12 -6.28221e-12 -6.28221e-12 -6.2822e-12 3.17488e-11 3.17488e-11 -6.2822e-12 -6.28221e-12 3.17488e-11 3.17488e-11 3.17498e-11 3.17486e-11 -1.32426e-10 -1.32426e-10 3.17486e-11 3.17487e-11 -1.32426e-10 -1.32426e-10 -1.32426e-10 -1.32426e-10 4.68625e-10 4.68625e-10 -1.32426e-10 -1.32426e-10 4.68625e-10 4.68625e-10 3.17487e-11 3.17488e-11 -1.32426e-10 -1.32426e-10 3.17488e-11 3.17488e-11 -1.32426e-10 -1.32426e-10 -1.32426e-10 -1.32426e-10 4.68625e-10 4.68625e-10 -1.32426e-10 -1.32426e-10 4.68625e-10 4.68625e-10 4.68625e-10 4.68625e-10 -1.35096e-09 -1.35096e-09 4.68625e-10 4.68625e-10 -1.35096e-09 -1.35096e-09 -1.35096e-09 -1.35096e-09 2.59476e-09 2.59476e-09 -1.35096e-09 -1.35096e-09 2.59476e-09 2.59476e-09 4.68625e-10 4.68625e-10 -1.35096e-09 -1.35096e-09 4.68625e-10 4.68625e-10 -1.35096e-09 -1.35096e-09 -1.35096e-09 -1.35096e-09 2.59476e-09 2.59476e-09 -1.35096e-09 -1.35096e-09 2.59476e-09 2.59476e-09 3.17488e-11 3.17488e-11 -1.32426e-10 -1.32426e-10 3.17488e-11 3.17488e-11 -1.32426e-10 -1.32426e-10 -1.32426e-10 -1.32426e-10 4.68625e-10 4.68625e-10 -1.32426e-10 -1.32426e-10 4.68625e-10 4.68625e-10 3.17488e-11 3.17488e-11 -1.32426e-10 -1.32426e-10 3.17488e-11 3.17488e-11 -1.32426e-10 -1.32426e-10 -1.32426e-10 -1.32426e-10 4.68625e-10 4.68625e-10 -1.32426e-10 -1.32426e-10 4.68625e-10 4.68625e-10 4.68625e-10 4.68625e-10 -1.35096e-09 -1.35096e-09 4.68625e-10 4.68625e-10 -1.35096e-09 -1.35096e-09 -1.35096e-09 -1.35096e-09 2.59476e-09 2.59476e-09 -1.35096e-09 -1.35096e-09 2.59476e-09 2.59476e-09 4.68625e-10 4.68625e-10 -1.35096e-09 -1.35096e-09 4.68625e-10 4.68625e-10 -1.35096e-09 -1.35096e-09 -1.35096e-09 -1.35096e-09 2.59476e-09 2.59476e-09 -1.35096e-09 -1.35096e-09 2.59476e-09 2.59476e-09 -1.41319e-13 -1.41316e-13 5.09028e-14 5.09024e-14 -1.41316e-13 -1.41316e-13 5.09024e-14 5.09025e-14 5.09028e-14 5.09024e-14 8.53555e-13 8.53554e-13 5.09024e-14 5.09025e-14 8.53554e-13 8.53554e-13 -1.41316e-13 -1.41316e-13 5.09025e-14 5.09025e-14 -1.41316e-13 -1.41316e-13 5.09025e-14 5.09025e-14 5.09025e-14 5.09025e-14 8.53554e-13 8.53554e-13 5.09025e-14 5.09025e-14 8.53554e-13 8.53554e-13 8.53555e-13 8.53554e-13 -6.28221e-12 -6.28221e-12 8.53554e-13 8.53554e-13 -6.28221e-12 -6.28221e-12 -6.28221e-12 -6.28221e-12 3.17488e-11 3.17488e-11 -6.28221e-12 -6.28221e-12 3.17488e-11 3.17488e-11 8.53554e-13 8.53554e-13 -6.28221e-12 -6.28221e-12 8.53554e-13 8.53554e-13 -6.28221e-12 -6.28221e-12 -6.28221e-12 -6.28221e-12 3.17488e-11 3.17488e-11 -6.28221e-12 -6.28221e-12 3.17488e-11 3.17488e-11 -1.41316e-13 -1.41316e-13 5.09025e-14 5.09025e-14 -1.41316e-13 -1.41316e-13 5.09025e-14 5.09025e-14 5.09025e-14 5.09025e-14 8.53554e-13 8.53554e-13 5.09025e-14 5.09025e-14 8.53554e-13 8.53554e-13 -1.41316e-13 -1.41316e-13 5.09025e-14 5.09025e-14 -1.41316e-13 -1.41316e-13 5.09025e-14 5.09025e-14 5.09025e-14 5.09025e-14 8.53554e-13 8.53554e-13 5.09025e-14 5.09025e-14 8.53554e-13 8.53554e-13 8.53554e-13 8.53554e-13 -6.28221e-12 -6.28221e-12 8.53554e-13 8.53554e-13 -6.28221e-12 -6.28221e-12 -6.28221e-12 -6.28221e-12 3.17488e-11 3.17488e-11 -6.28221e-12 -6.28221e-12 3.17488e-11 3.17488e-11 8.53554e-13 8.53554e-13 -6.28221e-12 -6.28221e-12 8.53554e-13 8.53554e-13 -6.28221e-12 -6.28221e-12 -6.28221e-12 -6.28221e-12 3.17488e-11 3.17488e-11 -6.28221e-12 -6.28221e-12 3.17488e-11 3.17488e-11 3.17488e-11 3.17488e-11 -1.32426e-10 -1.32426e-10 3.17488e-11 3.17488e-11 -1.32426e-10 -1.32426e-10 -1.32426e-10 -1.32426e-10 4.68625e-10 4.68625e-10 -1.32426e-10 -1.32426e-10 4.68625e-10 4.68625e-10 3.17488e-11 3.17488e-11 -1.32426e-10 -1.32426e-10 3.17488e-11 3.17488e-11 -1.32426e-10 -1.32426e-10 -1.32426e-10 -1.32426e-10 4.68625e-10 4.68625e-10 -1.32426e-10 -1.32426e-10 4.68625e-10 4.68625e-10 4.68625e-10 4.68625e-10 -1.35096e-09 -1.35096e-09 4.68625e-10 4.68625e-10 -1.35096e-09 -1.35096e-09 -1.35096e-09 -1.35096e-09 2.59476e-09 2.59476e-09 -1.35096e-09 -1.35096e-09 2.59476e-09 2.59476e-09 4.68625e-10 4.68625e-10 -1.35096e-09 -1.35096e-09 4.68625e-10 4.68625e-10 -1.35096e-09 -1.35096e-09 -1.35096e-09 -1.35096e-09 2.59476e-09 2.59476e-09 -1.35096e-09 -1.35096e-09 2.59476e-09 2.59476e-09 3.17488e-11 3.17488e-11 -1.32426e-10 -1.32426e-10 3.17488e-11 3.17488e-11 -1.32426e-10 -1.32426e-10 -1.32426e-10 -1.32426e-10 4.68625e-10 4.68625e-10 -1.32426e-10 -1.32426e-10 4.68625e-10 4.68625e-10 3.17488e-11 3.17488e-11 -1.32426e-10 -1.32426e-10 3.17488e-11 3.17488e-11 -1.32426e-10 -1.32426e-10 -1.32426e-10 -1.32426e-10 4.68625e-10 4.68625e-10 -1.32426e-10 -1.32426e-10 4.68625e-10 4.68625e-10 4.68625e-10 4.68625e-10 -1.35096e-09 -1.35096e-09 4.68625e-10 4.68625e-10 -1.35096e-09 -1.35096e-09 -1.35096e-09 -1.35096e-09 2.59476e-09 2.59476e-09 -1.35096e-09 -1.35096e-09 2.59476e-09 2.59476e-09 4.68625e-10 4.68625e-10 -1.35096e-09 -1.35096e-09 4.68625e-10 4.68625e-10 -1.35096e-09 -1.35096e-09 -1.35096e-09 -1.35096e-09 2.59476e-09 2.59476e-09 -1.35096e-09 -1.35096e-09 2.59476e-09 2.59476e-09 2.59476e-09 2.59476e-09 1.42317e-09 1.42317e-09 2.59476e-09 2.59476e-09 1.42317e-09 1.42317e-09 1.42317e-09 1.42317e-09 -4.42522e-08 -4.42522e-08 1.42317e-09 1.42317e-09 -4.42522e-08 -4.42522e-08 2.59476e-09 2.59476e-09 1.42317e-09 1.42317e-09 2.59476e-09 2.59476e-09 1.42317e-09 1.42317e-09 1.42317e-09 1.42317e-09 -4.42522e-08 -4.42522e-08 1.42317e-09 1.42317e-09 -4.42522e-08 -4.42522e-08 -4.42522e-08 -4.42522e-08 2.53628e-07 2.53628e-07 -4.42522e-08 -4.42522e-08 2.53628e-07 2.53628e-07 2.53628e-07 2.53628e-07 -8.90205e-07 -8.90205e-07 2.53628e-07 2.53628e-07 -8.90205e-07 -8.90205e-07 -4.42522e-08 -4.42522e-08 2.53628e-07 2.53628e-07 -4.42522e-08 -4.42522e-08 2.53628e-07 2.53628e-07 2.53628e-07 2.53628e-07 -8.90205e-07 -8.90205e-07 2.53628e-07 2.53628e-07 -8.90205e-07 -8.90205e-07 2.59476e-09 2.59476e-09 1.42317e-09 1.42317e-09 2.59476e-09 2.59476e-09 1.42317e-09 1.42317e-09 1.42317e-09 1.42317e-09 -4.42522e-08 -4.42522e-08 1.42317e-09 1.42317e-09 -4.42522e-08 -4.42522e-08 2.59476e-09 2.59476e-09 1.