# vtk DataFile Version 3.0
#This file was generated by the deal.II library on 2022/11/16 at 21:19:13
ASCII
DATASET UNSTRUCTURED_GRID

POINTS 4096 double
0 0.5 0
0.03125 0.5 0
0 0.53125 0
0.03125 0.53125 0
0.03125 0.5 0
0.0625 0.5 0
0.03125 0.53125 0
0.0625 0.53125 0
0 0.53125 0
0.03125 0.53125 0
0 0.5625 0
0.03125 0.5625 0
0.03125 0.53125 0
0.0625 0.53125 0
0.03125 0.5625 0
0.0625 0.5625 0
0.0625 0.5 0
0.09375 0.5 0
0.0625 0.53125 0
0.09375 0.53125 0
0.09375 0.5 0
0.125 0.5 0
0.09375 0.53125 0
0.125 0.53125 0
0.0625 0.53125 0
0.09375 0.53125 0
0.0625 0.5625 0
0.09375 0.5625 0
0.09375 0.53125 0
0.125 0.53125 0
0.09375 0.5625 0
0.125 0.5625 0
0 0.5625 0
0.03125 0.5625 0
0 0.59375 0
0.03125 0.59375 0
0.03125 0.5625 0
0.0625 0.5625 0
0.03125 0.59375 0
0.0625 0.59375 0
0 0.59375 0
0.03125 0.59375 0
0 0.625 0
0.03125 0.625 0
0.03125 0.59375 0
0.0625 0.59375 0
0.03125 0.625 0
0.0625 0.625 0
0.0625 0.5625 0
0.09375 0.5625 0
0.0625 0.59375 0
0.09375 0.59375 0
0.09375 0.5625 0
0.125 0.5625 0
0.09375 0.59375 0
0.125 0.59375 0
0.0625 0.59375 0
0.09375 0.59375 0
0.0625 0.625 0
0.09375 0.625 0
0.09375 0.59375 0
0.125 0.59375 0
0.09375 0.625 0
0.125 0.625 0
0.125 0.5 0
0.15625 0.5 0
0.125 0.53125 0
0.15625 0.53125 0
0.15625 0.5 0
0.1875 0.5 0
0.15625 0.53125 0
0.1875 0.53125 0
0.125 0.53125 0
0.15625 0.53125 0
0.125 0.5625 0
0.15625 0.5625 0
0.15625 0.53125 0
0.1875 0.53125 0
0.15625 0.5625 0
0.1875 0.5625 0
0.1875 0.5 0
0.21875 0.5 0
0.1875 0.53125 0
0.21875 0.53125 0
0.21875 0.5 0
0.25 0.5 0
0.21875 0.53125 0
0.25 0.53125 0
0.1875 0.53125 0
0.21875 0.53125 0
0.1875 0.5625 0
0.21875 0.5625 0
0.21875 0.53125 0
0.25 0.53125 0
0.21875 0.5625 0
0.25 0.5625 0
0.125 0.5625 0
0.15625 0.5625 0
0.125 0.59375 0
0.15625 0.59375 0
0.15625 0.5625 0
0.1875 0.5625 0
0.15625 0.59375 0
0.1875 0.59375 0
0.125 0.59375 0
0.15625 0.59375 0
0.125 0.625 0
0.15625 0.625 0
0.15625 0.59375 0
0.1875 0.59375 0
0.15625 0.625 0
0.1875 0.625 0
0.1875 0.5625 0
0.21875 0.5625 0
0.1875 0.59375 0
0.21875 0.59375 0
0.21875 0.5625 0
0.25 0.5625 0
0.21875 0.59375 0
0.25 0.59375 0
0.1875 0.59375 0
0.21875 0.59375 0
0.1875 0.625 0
0.21875 0.625 0
0.21875 0.59375 0
0.25 0.59375 0
0.21875 0.625 0
0.25 0.625 0
0 0.625 0
0.03125 0.625 0
0 0.65625 0
0.03125 0.65625 0
0.03125 0.625 0
0.0625 0.625 0
0.03125 0.65625 0
0.0625 0.65625 0
0 0.65625 0
0.03125 0.65625 0
0 0.6875 0
0.03125 0.6875 0
0.03125 0.65625 0
0.0625 0.65625 0
0.03125 0.6875 0
0.0625 0.6875 0
0.0625 0.625 0
0.09375 0.625 0
0.0625 0.65625 0
0.09375 0.65625 0
0.09375 0.625 0
0.125 0.625 0
0.09375 0.65625 0
0.125 0.65625 0
0.0625 0.65625 0
0.09375 0.65625 0
0.0625 0.6875 0
0.09375 0.6875 0
0.09375 0.65625 0
0.125 0.65625 0
0.09375 0.6875 0
0.125 0.6875 0
0 0.6875 0
0.03125 0.6875 0
0 0.71875 0
0.03125 0.71875 0
0.03125 0.6875 0
0.0625 0.6875 0
0.03125 0.71875 0
0.0625 0.71875 0
0 0.71875 0
0.03125 0.71875 0
0 0.75 0
0.03125 0.75 0
0.03125 0.71875 0
0.0625 0.71875 0
0.03125 0.75 0
0.0625 0.75 0
0.0625 0.6875 0
0.09375 0.6875 0
0.0625 0.71875 0
0.09375 0.71875 0
0.09375 0.6875 0
0.125 0.6875 0
0.09375 0.71875 0
0.125 0.71875 0
0.0625 0.71875 0
0.09375 0.71875 0
0.0625 0.75 0
0.09375 0.75 0
0.09375 0.71875 0
0.125 0.71875 0
0.09375 0.75 0
0.125 0.75 0
0.125 0.625 0
0.15625 0.625 0
0.125 0.65625 0
0.15625 0.65625 0
0.15625 0.625 0
0.1875 0.625 0
0.15625 0.65625 0
0.1875 0.65625 0
0.125 0.65625 0
0.15625 0.65625 0
0.125 0.6875 0
0.15625 0.6875 0
0.15625 0.65625 0
0.1875 0.65625 0
0.15625 0.6875 0
0.1875 0.6875 0
0.1875 0.625 0
0.21875 0.625 0
0.1875 0.65625 0
0.21875 0.65625 0
0.21875 0.625 0
0.25 0.625 0
0.21875 0.65625 0
0.25 0.65625 0
0.1875 0.65625 0
0.21875 0.65625 0
0.1875 0.6875 0
0.21875 0.6875 0
0.21875 0.65625 0
0.25 0.65625 0
0.21875 0.6875 0
0.25 0.6875 0
0.125 0.6875 0
0.15625 0.6875 0
0.125 0.71875 0
0.15625 0.71875 0
0.15625 0.6875 0
0.1875 0.6875 0
0.15625 0.71875 0
0.1875 0.71875 0
0.125 0.71875 0
0.15625 0.71875 0
0.125 0.75 0
0.15625 0.75 0
0.15625 0.71875 0
0.1875 0.71875 0
0.15625 0.75 0
0.1875 0.75 0
0.1875 0.6875 0
0.21875 0.6875 0
0.1875 0.71875 0
0.21875 0.71875 0
0.21875 0.6875 0
0.25 0.6875 0
0.21875 0.71875 0
0.25 0.71875 0
0.1875 0.71875 0
0.21875 0.71875 0
0.1875 0.75 0
0.21875 0.75 0
0.21875 0.71875 0
0.25 0.71875 0
0.21875 0.75 0
0.25 0.75 0
0.25 0.5 0
0.28125 0.5 0
0.25 0.53125 0
0.28125 0.53125 0
0.28125 0.5 0
0.3125 0.5 0
0.28125 0.53125 0
0.3125 0.53125 0
0.25 0.53125 0
0.28125 0.53125 0
0.25 0.5625 0
0.28125 0.5625 0
0.28125 0.53125 0
0.3125 0.53125 0
0.28125 0.5625 0
0.3125 0.5625 0
0.3125 0.5 0
0.34375 0.5 0
0.3125 0.53125 0
0.34375 0.53125 0
0.34375 0.5 0
0.375 0.5 0
0.34375 0.53125 0
0.375 0.53125 0
0.3125 0.53125 0
0.34375 0.53125 0
0.3125 0.5625 0
0.34375 0.5625 0
0.34375 0.53125 0
0.375 0.53125 0
0.34375 0.5625 0
0.375 0.5625 0
0.25 0.5625 0
0.28125 0.5625 0
0.25 0.59375 0
0.28125 0.59375 0
0.28125 0.5625 0
0.3125 0.5625 0
0.28125 0.59375 0
0.3125 0.59375 0
0.25 0.59375 0
0.28125 0.59375 0
0.25 0.625 0
0.28125 0.625 0
0.28125 0.59375 0
0.3125 0.59375 0
0.28125 0.625 0
0.3125 0.625 0
0.3125 0.5625 0
0.34375 0.5625 0
0.3125 0.59375 0
0.34375 0.59375 0
0.34375 0.5625 0
0.375 0.5625 0
0.34375 0.59375 0
0.375 0.59375 0
0.3125 0.59375 0
0.34375 0.59375 0
0.3125 0.625 0
0.34375 0.625 0
0.34375 0.59375 0
0.375 0.59375 0
0.34375 0.625 0
0.375 0.625 0
0.375 0.5 0
0.40625 0.5 0
0.375 0.53125 0
0.40625 0.53125 0
0.40625 0.5 0
0.4375 0.5 0
0.40625 0.53125 0
0.4375 0.53125 0
0.375 0.53125 0
0.40625 0.53125 0
0.375 0.5625 0
0.40625 0.5625 0
0.40625 0.53125 0
0.4375 0.53125 0
0.40625 0.5625 0
0.4375 0.5625 0
0.4375 0.5 0
0.46875 0.5 0
0.4375 0.53125 0
0.46875 0.53125 0
0.46875 0.5 0
0.5 0.5 0
0.46875 0.53125 0
0.5 0.53125 0
0.4375 0.53125 0
0.46875 0.53125 0
0.4375 0.5625 0
0.46875 0.5625 0
0.46875 0.53125 0
0.5 0.53125 0
0.46875 0.5625 0
0.5 0.5625 0
0.375 0.5625 0
0.40625 0.5625 0
0.375 0.59375 0
0.40625 0.59375 0
0.40625 0.5625 0
0.4375 0.5625 0
0.40625 0.59375 0
0.4375 0.59375 0
0.375 0.59375 0
0.40625 0.59375 0
0.375 0.625 0
0.40625 0.625 0
0.40625 0.59375 0
0.4375 0.59375 0
0.40625 0.625 0
0.4375 0.625 0
0.4375 0.5625 0
0.46875 0.5625 0
0.4375 0.59375 0
0.46875 0.59375 0
0.46875 0.5625 0
0.5 0.5625 0
0.46875 0.59375 0
0.5 0.59375 0
0.4375 0.59375 0
0.46875 0.59375 0
0.4375 0.625 0
0.46875 0.625 0
0.46875 0.59375 0
0.5 0.59375 0
0.46875 0.625 0
0.5 0.625 0
0.25 0.625 0
0.28125 0.625 0
0.25 0.65625 0
0.28125 0.65625 0
0.28125 0.625 0
0.3125 0.625 0
0.28125 0.65625 0
0.3125 0.65625 0
0.25 0.65625 0
0.28125 0.65625 0
0.25 0.6875 0
0.28125 0.6875 0
0.28125 0.65625 0
0.3125 0.65625 0
0.28125 0.6875 0
0.3125 0.6875 0
0.3125 0.625 0
0.34375 0.625 0
0.3125 0.65625 0
0.34375 0.65625 0
0.34375 0.625 0
0.375 0.625 0
0.34375 0.65625 0
0.375 0.65625 0
0.3125 0.65625 0
0.34375 0.65625 0
0.3125 0.6875 0
0.34375 0.6875 0
0.34375 0.65625 0
0.375 0.65625 0
0.34375 0.6875 0
0.375 0.6875 0
0.25 0.6875 0
0.28125 0.6875 0
0.25 0.71875 0
0.28125 0.71875 0
0.28125 0.6875 0
0.3125 0.6875 0
0.28125 0.71875 0
0.3125 0.71875 0
0.25 0.71875 0
0.28125 0.71875 0
0.25 0.75 0
0.28125 0.75 0
0.28125 0.71875 0
0.3125 0.71875 0
0.28125 0.75 0
0.3125 0.75 0
0.3125 0.6875 0
0.34375 0.6875 0
0.3125 0.71875 0
0.34375 0.71875 0
0.34375 0.6875 0
0.375 0.6875 0
0.34375 0.71875 0
0.375 0.71875 0
0.3125 0.71875 0
0.34375 0.71875 0
0.3125 0.75 0
0.34375 0.75 0
0.34375 0.71875 0
0.375 0.71875 0
0.34375 0.75 0
0.375 0.75 0
0.375 0.625 0
0.40625 0.625 0
0.375 0.65625 0
0.40625 0.65625 0
0.40625 0.625 0
0.4375 0.625 0
0.40625 0.65625 0
0.4375 0.65625 0
0.375 0.65625 0
0.40625 0.65625 0
0.375 0.6875 0
0.40625 0.6875 0
0.40625 0.65625 0
0.4375 0.65625 0
0.40625 0.6875 0
0.4375 0.6875 0
0.4375 0.625 0
0.46875 0.625 0
0.4375 0.65625 0
0.46875 0.65625 0
0.46875 0.625 0
0.5 0.625 0
0.46875 0.65625 0
0.5 0.65625 0
0.4375 0.65625 0
0.46875 0.65625 0
0.4375 0.6875 0
0.46875 0.6875 0
0.46875 0.65625 0
0.5 0.65625 0
0.46875 0.6875 0
0.5 0.6875 0
0.375 0.6875 0
0.40625 0.6875 0
0.375 0.71875 0
0.40625 0.71875 0
0.40625 0.6875 0
0.4375 0.6875 0
0.40625 0.71875 0
0.4375 0.71875 0
0.375 0.71875 0
0.40625 0.71875 0
0.375 0.75 0
0.40625 0.75 0
0.40625 0.71875 0
0.4375 0.71875 0
0.40625 0.75 0
0.4375 0.75 0
0.4375 0.6875 0
0.46875 0.6875 0
0.4375 0.71875 0
0.46875 0.71875 0
0.46875 0.6875 0
0.5 0.6875 0
0.46875 0.71875 0
0.5 0.71875 0
0.4375 0.71875 0
0.46875 0.71875 0
0.4375 0.75 0
0.46875 0.75 0
0.46875 0.71875 0
0.5 0.71875 0
0.46875 0.75 0
0.5 0.75 0
0 0.75 0
0.03125 0.75 0
0 0.78125 0
0.03125 0.78125 0
0.03125 0.75 0
0.0625 0.75 0
0.03125 0.78125 0
0.0625 0.78125 0
0 0.78125 0
0.03125 0.78125 0
0 0.8125 0
0.03125 0.8125 0
0.03125 0.78125 0
0.0625 0.78125 0
0.03125 0.8125 0
0.0625 0.8125 0
0.0625 0.75 0
0.09375 0.75 0
0.0625 0.78125 0
0.09375 0.78125 0
0.09375 0.75 0
0.125 0.75 0
0.09375 0.78125 0
0.125 0.78125 0
0.0625 0.78125 0
0.09375 0.78125 0
0.0625 0.8125 0
0.09375 0.8125 0
0.09375 0.78125 0
0.125 0.78125 0
0.09375 0.8125 0
0.125 0.8125 0
0 0.8125 0
0.03125 0.8125 0
0 0.84375 0
0.03125 0.84375 0
0.03125 0.8125 0
0.0625 0.8125 0
0.03125 0.84375 0
0.0625 0.84375 0
0 0.84375 0
0.03125 0.84375 0
0 0.875 0
0.03125 0.875 0
0.03125 0.84375 0
0.0625 0.84375 0
0.03125 0.875 0
0.0625 0.875 0
0.0625 0.8125 0
0.09375 0.8125 0
0.0625 0.84375 0
0.09375 0.84375 0
0.09375 0.8125 0
0.125 0.8125 0
0.09375 0.84375 0
0.125 0.84375 0
0.0625 0.84375 0
0.09375 0.84375 0
0.0625 0.875 0
0.09375 0.875 0
0.09375 0.84375 0
0.125 0.84375 0
0.09375 0.875 0
0.125 0.875 0
0.125 0.75 0
0.15625 0.75 0
0.125 0.78125 0
0.15625 0.78125 0
0.15625 0.75 0
0.1875 0.75 0
0.15625 0.78125 0
0.1875 0.78125 0
0.125 0.78125 0
0.15625 0.78125 0
0.125 0.8125 0
0.15625 0.8125 0
0.15625 0.78125 0
0.1875 0.78125 0
0.15625 0.8125 0
0.1875 0.8125 0
0.1875 0.75 0
0.21875 0.75 0
0.1875 0.78125 0
0.21875 0.78125 0
0.21875 0.75 0
0.25 0.75 0
0.21875 0.78125 0
0.25 0.78125 0
0.1875 0.78125 0
0.21875 0.78125 0
0.1875 0.8125 0
0.21875 0.8125 0
0.21875 0.78125 0
0.25 0.78125 0
0.21875 0.8125 0
0.25 0.8125 0
0.125 0.8125 0
0.15625 0.8125 0
0.125 0.84375 0
0.15625 0.84375 0
0.15625 0.8125 0
[...]
POINT_DATA 4096
SCALARS x_dis double 1
LOOKUP_TABLE default
3.24925e-11 3.24925e-11 -2.0114e-10 -2.0114e-10 3.24925e-11 3.24925e-11 -2.0114e-10 -2.01141e-10 -2.0114e-10 -2.0114e-10 7.0095e-10 7.00951e-10 -2.0114e-10 -2.01141e-10 7.00951e-10 7.00952e-10 3.24925e-11 3.24925e-11 -2.01141e-10 -2.01141e-10 3.24925e-11 3.24924e-11 -2.01141e-10 -2.01141e-10 -2.01141e-10 -2.01141e-10 7.00952e-10 7.00954e-10 -2.01141e-10 -2.01141e-10 7.00954e-10 7.00954e-10 7.0095e-10 7.00951e-10 -1.42931e-09 -1.42931e-09 7.00951e-10 7.00952e-10 -1.42931e-09 -1.42931e-09 -1.42931e-09 -1.42931e-09 -2.49255e-10 -2.49261e-10 -1.42931e-09 -1.42931e-09 -2.49261e-10 -2.49276e-10 7.00952e-10 7.00954e-10 -1.42931e-09 -1.42931e-09 7.00954e-10 7.00954e-10 -1.42931e-09 -1.42932e-09 -1.42931e-09 -1.42931e-09 -2.49276e-10 -2.49296e-10 -1.42931e-09 -1.42932e-09 -2.49296e-10 -2.49308e-10 3.24924e-11 3.24924e-11 -2.01141e-10 -2.01141e-10 3.24924e-11 3.24924e-11 -2.01141e-10 -2.01141e-10 -2.01141e-10 -2.01141e-10 7.00954e-10 7.00954e-10 -2.01141e-10 -2.01141e-10 7.00954e-10 7.00955e-10 3.24924e-11 3.24924e-11 -2.01141e-10 -2.01141e-10 3.24924e-11 3.24924e-11 -2.01141e-10 -2.01141e-10 -2.01141e-10 -2.01141e-10 7.00955e-10 7.00955e-10 -2.01141e-10 -2.01141e-10 7.00955e-10 7.00954e-10 7.00954e-10 7.00954e-10 -1.42932e-09 -1.42932e-09 7.00954e-10 7.00955e-10 -1.42932e-09 -1.42932e-09 -1.42932e-09 -1.42932e-09 -2.49308e-10 -2.49306e-10 -1.42932e-09 -1.42932e-09 -2.49306e-10 -2.49304e-10 7.00955e-10 7.00955e-10 -1.42932e-09 -1.42932e-09 7.00955e-10 7.00954e-10 -1.42932e-09 -1.42932e-09 -1.42932e-09 -1.42932e-09 -2.49304e-10 -2.49306e-10 -1.42932e-09 -1.42932e-09 -2.49306e-10 -2.49306e-10 -2.49255e-10 -2.49261e-10 1.5414e-08 1.5414e-08 -2.49261e-10 -2.49276e-10 1.5414e-08 1.54141e-08 1.5414e-08 1.5414e-08 -6.43914e-08 -6.43914e-08 1.5414e-08 1.54141e-08 -6.43914e-08 -6.43913e-08 -2.49276e-10 -2.49296e-10 1.54141e-08 1.54141e-08 -2.49296e-10 -2.49308e-10 1.54141e-08 1.54142e-08 1.54141e-08 1.54141e-08 -6.43913e-08 -6.43912e-08 1.54141e-08 1.54142e-08 -6.43912e-08 -6.43911e-08 -6.43914e-08 -6.43914e-08 1.12599e-07 1.12598e-07 -6.43914e-08 -6.43913e-08 1.12598e-07 1.12598e-07 1.12599e-07 1.12598e-07 1.82058e-07 1.82056e-07 1.12598e-07 1.12598e-07 1.82056e-07 1.82054e-07 -6.43913e-08 -6.43912e-08 1.12598e-07 1.12596e-07 -6.43912e-08 -6.43911e-08 1.12596e-07 1.12596e-07 1.12598e-07 1.12596e-07 1.82054e-07 1.82052e-07 1.12596e-07 1.12596e-07 1.82052e-07 1.8205e-07 -2.49308e-10 -2.49306e-10 1.54142e-08 1.54142e-08 -2.49306e-10 -2.49304e-10 1.54142e-08 1.54142e-08 1.54142e-08 1.54142e-08 -6.43911e-08 -6.4391e-08 1.54142e-08 1.54142e-08 -6.4391e-08 -6.4391e-08 -2.49304e-10 -2.49306e-10 1.54142e-08 1.54142e-08 -2.49306e-10 -2.49306e-10 1.54142e-08 1.54142e-08 1.54142e-08 1.54142e-08 -6.4391e-08 -6.4391e-08 1.54142e-08 1.54142e-08 -6.4391e-08 -6.4391e-08 -6.43911e-08 -6.4391e-08 1.12596e-07 1.12595e-07 -6.4391e-08 -6.4391e-08 1.12595e-07 1.12595e-07 1.12596e-07 1.12595e-07 1.8205e-07 1.82049e-07 1.12595e-07 1.12595e-07 1.82049e-07 1.82049e-07 -6.4391e-08 -6.4391e-08 1.12595e-07 1.12595e-07 -6.4391e-08 -6.4391e-08 1.12595e-07 1.12595e-07 1.12595e-07 1.12595e-07 1.82049e-07 1.82049e-07 1.12595e-07 1.12595e-07 1.82049e-07 1.82049e-07 3.24924e-11 3.24924e-11 -2.01141e-10 -2.01141e-10 3.24924e-11 3.24924e-11 -2.01141e-10 -2.01139e-10 -2.01141e-10 -2.01141e-10 7.00954e-10 7.00955e-10 -2.01141e-10 -2.01139e-10 7.00955e-10 7.00955e-10 3.24924e-11 3.24924e-11 -2.01139e-10 -2.01145e-10 3.24924e-11 3.24919e-11 -2.01145e-10 -2.01143e-10 -2.01139e-10 -2.01145e-10 7.00955e-10 7.00951e-10 -2.01145e-10 -2.01143e-10 7.00951e-10 7.00961e-10 7.00954e-10 7.00955e-10 -1.42932e-09 -1.42932e-09 7.00955e-10 7.00955e-10 -1.42932e-09 -1.42932e-09 -1.42932e-09 -1.42932e-09 -2.49306e-10 -2.49305e-10 -1.42932e-09 -1.42932e-09 -2.49305e-10 -2.49305e-10 7.00955e-10 7.00951e-10 -1.42932e-09 -1.42932e-09 7.00951e-10 7.00961e-10 -1.42932e-09 -1.42932e-09 -1.42932e-09 -1.42932e-09 -2.49305e-10 -2.49304e-10 -1.42932e-09 -1.42932e-09 -2.49304e-10 -2.49308e-10 3.24919e-11 3.24934e-11 -2.01143e-10 -2.01086e-10 3.24934e-11 3.24926e-11 -2.01086e-10 -2.01225e-10 -2.01143e-10 -2.01086e-10 7.00961e-10 7.00963e-10 -2.01086e-10 -2.01225e-10 7.00963e-10 7.00883e-10 3.24926e-11 3.24865e-11 -2.01225e-10 -2.01725e-10 3.24865e-11 3.25063e-11 -2.01725e-10 -1.99191e-10 -2.01225e-10 -2.01725e-10 7.00883e-10 7.01219e-10 -2.01725e-10 -1.99191e-10 7.01219e-10 6.99832e-10 7.00961e-10 7.00963e-10 -1.42932e-09 -1.4293e-09 7.00963e-10 7.00883e-10 -1.4293e-09 -1.42931e-09 -1.42932e-09 -1.4293e-09 -2.49308e-10 -2.49309e-10 -1.4293e-09 -1.42931e-09 -2.49309e-10 -2.49285e-10 7.00883e-10 7.01219e-10 -1.42931e-09 -1.42949e-09 7.01219e-10 6.99832e-10 -1.42949e-09 -1.42897e-09 -1.42931e-09 -1.42949e-09 -2.49285e-10 -2.49261e-10 -1.42949e-09 -1.42897e-09 -2.49261e-10 -2.49401e-10 -2.49306e-10 -2.49305e-10 1.54142e-08 1.54142e-08 -2.49305e-10 -2.49305e-10 1.54142e-08 1.54142e-08 1.54142e-08 1.54142e-08 -6.4391e-08 -6.4391e-08 1.54142e-08 1.54142e-08 -6.4391e-08 -6.4391e-08 -2.49305e-10 -2.49304e-10 1.54142e-08 1.54142e-08 -2.49304e-10 -2.49308e-10 1.54142e-08 1.54142e-08 1.54142e-08 1.54142e-08 -6.4391e-08 -6.4391e-08 1.54142e-08 1.54142e-08 -6.4391e-08 -6.4391e-08 -6.4391e-08 -6.4391e-08 1.12595e-07 1.12595e-07 -6.4391e-08 -6.4391e-08 1.12595e-07 1.12595e-07 1.12595e-07 1.12595e-07 1.82049e-07 1.82049e-07 1.12595e-07 1.12595e-07 1.82049e-07 1.82049e-07 -6.4391e-08 -6.4391e-08 1.12595e-07 1.12595e-07 -6.4391e-08 -6.4391e-08 1.12595e-07 1.12595e-07 1.12595e-07 1.12595e-07 1.82049e-07 1.82049e-07 1.12595e-07 1.12595e-07 1.82049e-07 1.82049e-07 -2.49308e-10 -2.49309e-10 1.54142e-08 1.54142e-08 -2.49309e-10 -2.49285e-10 1.54142e-08 1.54142e-08 1.54142e-08 1.54142e-08 -6.4391e-08 -6.4391e-08 1.54142e-08 1.54142e-08 -6.4391e-08 -6.4391e-08 -2.49285e-10 -2.49261e-10 1.54142e-08 1.54142e-08 -2.49261e-10 -2.49401e-10 1.54142e-08 1.54142e-08 1.54142e-08 1.54142e-08 -6.4391e-08 -6.43911e-08 1.54142e-08 1.54142e-08 -6.43911e-08 -6.43911e-08 -6.4391e-08 -6.4391e-08 1.12595e-07 1.12595e-07 -6.4391e-08 -6.4391e-08 1.12595e-07 1.12595e-07 1.12595e-07 1.12595e-07 1.82049e-07 1.82049e-07 1.12595e-07 1.12595e-07 1.82049e-07 1.82049e-07 -6.4391e-08 -6.43911e-08 1.12595e-07 1.12595e-07 -6.43911e-08 -6.43911e-08 1.12595e-07 1.12595e-07 1.12595e-07 1.12595e-07 1.82049e-07 1.82049e-07 1.12595e-07 1.12595e-07 1.82049e-07 1.82049e-07 1.82058e-07 1.82056e-07 -1.56261e-06 -1.5626e-06 1.82056e-07 1.82054e-07 -1.5626e-06 -1.5626e-06 -1.56261e-06 -1.5626e-06 2.33983e-06 2.33987e-06 -1.5626e-06 -1.5626e-06 2.33987e-06 2.33997e-06 1.82054e-07 1.82052e-07 -1.5626e-06 -1.56258e-06 1.82052e-07 1.8205e-07 -1.56258e-06 -1.56257e-06 -1.5626e-06 -1.56258e-06 2.33997e-06 2.34007e-06 -1.56258e-06 -1.56257e-06 2.34007e-06 2.34014e-06 2.33983e-06 2.33987e-06 8.98355e-06 8.98371e-06 2.33987e-06 2.33997e-06 8.98371e-06 8.98409e-06 8.98355e-06 8.98371e-06 -2.2957e-05 -2.29565e-05 8.98371e-06 8.98409e-06 -2.29565e-05 -2.29556e-05 2.33997e-06 2.34007e-06 8.98409e-06 8.98446e-06 2.34007e-06 2.34014e-06 8.98446e-06 8.98468e-06 8.98409e-06 8.98446e-06 -2.29556e-05 -2.29548e-05 8.98446e-06 8.98468e-06 -2.29548e-05 -2.29542e-05 1.8205e-07 1.82049e-07 -1.56257e-06 -1.56257e-06 1.82049e-07 1.82049e-07 -1.56257e-06 -1.56257e-06 -1.56257e-06 -1.56257e-06 2.34014e-06 2.34017e-06 -1.56257e-06 -1.56257e-06 2.34017e-06 2.34018e-06 1.82049e-07 1.82049e-07 -1.56257e-06 -1.56257e-06 1.82049e-07 1.82049e-07 -1.56257e-06 -1.56257e-06 -1.56257e-06 -1.56257e-06 2.34018e-06 2.34018e-06 -1.56257e-06 -1.56257e-06 2.34018e-06 2.34018e-06 2.34014e-06 2.34017e-06 8.98468e-06 8.98479e-06 2.34017e-06 2.34018e-06 8.98479e-06 8.98482e-06 8.98468e-06 8.98479e-06 -2.29542e-05 -2.2954e-05 8.98479e-06 8.98482e-06 -2.2954e-05 -2.29539e-05 2.34018e-06 2.34018e-06 8.98482e-06 8.98483e-06 2.34018e-06 2.34018e-06 8.98483e-06 8.98483e-06 8.98482e-06 8.98483e-06 -2.29539e-05 -2.29539e-05 8.98483e-06 8.98483e-06 -2.29539e-05 -2.29539e-05 -2.2957e-05 -2.29565e-05 -0.00010631 -0.000106308 -2.29565e-05 -2.29556e-05 -0.000106308 -0.000106306 -0.00010631 -0.000106308 -0.000210538 -0.000210534 -0.000106308 -0.000106306 -0.000210534 -0.00021053 -2.29556e-05 -2.29548e-05 -0.000106306 -0.000106305 -2.29548e-05 -2.29542e-05 -0.000106305 -0.000106304 -0.000106306 -0.000106305 -0.00021053 -0.000210529 -0.000106305 -0.000106304 -0.000210529 -0.000210528 -0.000210538 -0.000210534 -0.000320112 -0.000320105 -0.000210534 -0.00021053 -0.000320105 -0.000320102 -0.000320112 -0.000320105 -0.00043 -0.00043 -0.000320105 -0.000320102 -0.00043 -0.00043 -0.00021053 -0.000210529 -0.000320102 -0.0003201 -0.000210529 -0.000210528 -0.0003201 -0.0003201 -0.000320102 -0.0003201 -0.00043 -0.00043 -0.0003201 -0.0003201 -0.00043 -0.00043 -2.29542e-05 -2.2954e-05 -0.000106304 -0.000106303 -2.2954e-05 -2.29539e-05 -0.000106303 -0.000106303 -0.000106304 -0.000106303 -0.000210528 -0.000210527 -0.000106303 -0.000106303 -0.000210527 -0.000210527 -2.29539e-05 -2.29539e-05 -0.000106303 -0.000106303 -2.29539e-05 -2.29539e-05 -0.000106303 -0.000106303 -0.000106303 -0.000106303 -0.000210527 -0.000210527 -0.000106303 -0.000106303 -0.000210527 -0.000210527 -0.000210528 -0.000210527 -0.0003201 -0.000320099 -0.000210527 -0.000210527 -0.000320099 -0.000320099 -0.0003201 -0.000320099 -0.00043 -0.00043 -0.000320099 -0.000320099 -0.00043 -0.00043 -0.000210527 -0.000210527 -0.000320099 -0.000320099 -0.000210527 -0.000210527 -0.000320099 -0.000320099 -0.000320099 -0.000320099 -0.00043 -0.00043 -0.000320099 -0.000320099 -0.00043 -0.00043 1.82049e-07 1.82049e-07 -1.56257e-06 -1.56257e-06 1.82049e-07 1.82049e-07 -1.56257e-06 -1.56257e-06 -1.56257e-06 -1.56257e-06 2.34018e-06 2.34018e-06 -1.56257e-06 -1.56257e-06 2.34018e-06 2.34018e-06 1.82049e-07 1.82049e-07 -1.56257e-06 -1.56257e-06 1.82049e-07 1.82049e-07 -1.56257e-06 -1.56257e-06 -1.56257e-06 -1.56257e-06 2.34018e-06 2.34018e-06 -1.56257e-06 -1.56257e-06 2.34018e-06 2.34018e-06 2.34018e-06 2.34018e-06 8.98483e-06 8.98483e-06 2.34018e-06 2.34018e-06 8.98483e-06 8.98483e-06 8.98483e-06 8.98483e-06 -2.29539e-05 -2.29539e-05 8.98483e-06 8.98483e-06 -2.29539e-05 -2.29539e-05 2.34018e-06 2.34018e-06 8.98483e-06 8.98483e-06 2.34018e-06 2.34018e-06 8.98483e-06 8.98483e-06 8.98483e-06 8.98483e-06 -2.29539e-05 -2.29539e-05 8.98483e-06 8.98483e-06 -2.29539e-05 -2.29539e-05 1.82049e-07 1.82049e-07 -1.56257e-06 -1.56257e-06 1.82049e-07 1.82049e-07 -1.56257e-06 -1.56257e-06 -1.56257e-06 -1.56257e-06 2.34018e-06 2.34018e-06 -1.56257e-06 -1.56257e-06 2.34018e-06 2.34018e-06 1.82049e-07 1.82049e-07 -1.56257e-06 -1.56257e-06 1.82049e-07 1.82049e-07 -1.56257e-06 -1.56257e-06 -1.56257e-06 -1.56257e-06 2.34018e-06 2.34018e-06 -1.56257e-06 -1.56257e-06 2.34018e-06 2.34018e-06 2.34018e-06 2.34018e-06 8.98483e-06 8.98483e-06 2.34018e-06 2.34018e-06 8.98483e-06 8.98483e-06 8.98483e-06 8.98483e-06 -2.29539e-05 -2.29539e-05 8.98483e-06 8.98483e-06 -2.29539e-05 -2.29539e-05 2.34018e-06 2.34018e-06 8.98483e-06 8.98483e-06 2.34018e-06 2.34018e-06 8.98483e-06 8.98483e-06 8.98483e-06 8.98483e-06 -2.29539e-05 -2.29539e-05 8.98483e-06 8.98483e-06 -2.29539e-05 -2.29539e-05 -2.29539e-05 -2.29539e-05 -0.000106303 -0.000106303 -2.29539e-05 -2.29539e-05 -0.000106303 -0.000106303 -0.000106303 -0.000106303 -0.000210527 -0.000210527 -0.000106303 -0.000106303 -0.000210527 -0.000210527 -2.29539e-05 -2.29539e-05 -0.000106303 -0.000106303 -2.29539e-05 -2.29539e-05 -0.000106303 -0.000106303 -0.000106303 -0.000106303 -0.000210527 -0.000210527 -0.000106303 -0.000106303 -0.000210527 -0.000210527 -0.000210527 -0.000210527 -0.000320099 -0.000320099 -0.000210527 -0.000210527 -0.000320099 -0.000320099 -0.000320099 -0.000320099 -0.00043 -0.00043 -0.000320099 -0.000320099 -0.00043 -0.00043 -0.000210527 -0.000210527 -0.000320099 -0.000320099 -0.000210527 -0.000210527 -0.000320099 -0.000320099 -0.000320099 -0.000320099 -0.00043 -0.00043 -0.000320099 -0.000320099 -0.00043 -0.00043 -2.29539e-05 -2.29539e-05 -0.000106303 -0.000106303 -2.29539e-05 -2.29539e-05 -0.000106303 -0.000106303 -0.000106303 -0.000106303 -0.000210527 -0.000210527 -0.000106303 -0.000106303 -0.000210527 -0.000210527 -2.29539e-05 -2.29539e-05 -0.000106303 -0.000106303 -2.29539e-05 -2.29539e-05 -0.000106303 -0.000106303 -0.000106303 -0.000106303 -0.000210527 -0.000210527 -0.000106303 -0.000106303 -0.000210527 -0.000210527 -0.000210527 -0.000210527 -0.000320099 -0.000320099 -0.000210527 -0.000210527 -0.000320099 -0.000320099 -0.000320099 -0.000320099 -0.00043 -0.00043 -0.000320099 -0.000320099 -0.00043 -0.00043 -0.000210527 -0.000210527 -0.000320099 -0.000320099 -0.000210527 -0.000210527 -0.000320099 -0.000320099 -0.000320099 -0.000320099 -0.00043 -0.00043 -0.000320099 -0.000320099 -0.00043 -0.00043 3.25063e-11 4.8091e-11 -1.99191e-10 -1.95185e-10 4.8091e-11 6.9322e-11 -1.95185e-10 -1.97776e-10 -1.99191e-10 -1.95185e-10 6.99832e-10 6.96362e-10 -1.95185e-10 -1.97776e-10 6.96362e-10 6.96231e-10 6.9322e-11 6.58205e-11 -1.97776e-10 -1.98705e-10 6.58205e-11 6.44263e-11 -1.98705e-10 -1.98752e-10 -1.97776e-10 -1.98705e-10 6.96231e-10 6.96836e-10 -1.98705e-10 -1.98752e-10 6.96836e-10 6.96738e-10 6.99832e-10 6.96362e-10 -1.42897e-09 -1.42748e-09 6.96362e-10 6.96231e-10 -1.42748e-09 -1.42712e-09 -1.42897e-09 -1.42748e-09 -2.49401e-10 -2.4979e-10 -1.42748e-09 -1.42712e-09 -2.4979e-10 -2.49989e-10 6.96231e-10 6.96836e-10 -1.42712e-09 -1.42742e-09 6.96836e-10 6.96738e-10 -1.42742e-09 -1.42745e-09 -1.42712e-09 -1.42742e-09 -2.49989e-10 -2.49941e-10 -1.42742e-09 -1.42745e-09 -2.49941e-10 -2.4988e-10 6.44263e-11 6.50306e-11 -1.98752e-10 -1.98561e-10 6.50306e-11 6.50246e-11 -1.98561e-10 -1.98585e-10 -1.98752e-10 -1.98561e-10 6.96738e-10 6.96677e-10 -1.98561e-10 -1.98585e-10 6.96677e-10 6.96718e-10 6.50246e-11 6.49706e-11 -1.98585e-10 -1.98606e-10 6.49706e-11 6.49849e-11 -1.98606e-10 -1.98597e-10 -1.98585e-10 -1.98606e-10 6.96718e-10 6.9671e-10 -1.98606e-10 -1.98597e-10 6.9671e-10 6.96708e-10 6.96738e-10 6.96677e-10 -1.42745e-09 -1.42739e-09 6.96677e-10 6.96718e-10 -1.42739e-09 -1.4274e-09 -1.42745e-09 -1.42739e-09 -2.4988e-10 -2.49897e-10 -1.42739e-09 -1.4274e-09 -2.49897e-10 -2.49904e-10 6.96718e-10 6.9671e-10 -1.4274e-09 -1.42741e-09 6.9671e-10 6.96708e-10 -1.42741e-09 -1.4274e-09 -1.4274e-09 -1.42741e-09 -2.49904e-10 -2.499e-10 -1.42741e-09 -1.4274e-09 -2.499e-10 -2.499e-10 -2.49401e-10 -2.4979e-10 1.54142e-08 1.54143e-08 -2.4979e-10 -2.49989e-10 1.54143e-08 1.54143e-08 1.54142e-08 1.54143e-08 -6.43911e-08 -6.4391e-08 1.54143e-08 1.54143e-08 -6.4391e-08 -6.4391e-08 -2.49989e-10 -2.49941e-10 1.54143e-08 1.54144e-08 -2.49941e-10 -2.4988e-10 1.54144e-08 1.54143e-08 1.54143e-08 1.54144e-08 -6.4391e-08 -6.43911e-08 1.54144e-08 1.54143e-08 -6.43911e-08 -6.43911e-08 -6.43911e-08 -6.4391e-08 1.12595e-07 1.12595e-07 -6.4391e-08 -6.4391e-08 1.12595e-07 1.12595e-07 1.12595e-07 1.12595e-07 1.82049e-07 1.82049e-07 1.12595e-07 1.12595e-07 1.82049e-07 1.82049e-07 -6.4391e-08 -6.43911e-08 1.12595e-07 1.12595e-07 -6.43911e-08 -6.43911e-08 1.12595e-07 1.12595e-07 1.12595e-07 1.12595e-07 1.82049e-07 1.82049e-07 1.12595e-07 1.12595e-07 1.82049e-07 1.82049e-07 -2.4988e-10 -2.49897e-10 1.54143e-08 1.54143e-08 -2.49897e-10 -2.49904e-10 1.54143e-08 1.54143e-08 1.54143e-08 1.54143e-08 -6.43911e-08 -6.43911e-08 1.54143e-08 1.54143e-08 -6.43911e-08 -6.43911e-08 -2.49904e-10 -2.499e-10 1.54143e-08 1.54143e-08 -2.499e-10 -2.499e-10 1.54143e-08 1.54143e-08 1.54143e-08 1.54143e-08 -6.43911e-08 -6.43911e-08 1.54143e-08 1.54143e-08 -6.43911e-08 -6.43911e-08 -6.43911e-08 -6.43911e-08 1.12595e-07 1.12595e-07 -6.43911e-08 -6.43911e-08 1.12595e-07 1.12595e-07 1.12595e-07 1.12595e-07 1.82049e-07 1.82049e-07 1.12595e-07 1.12595e-07 1.82049e-07 1.82049e-07 -6.43911e-08 -6.43911e-08 1.12595e-07 1.12595e-07 -6.43911e-08 -6.43911e-08 1.12595e-07 1.12595e-07 1.12595e-07 1.12595e-07 1.82049e-07 1.82049e-07 1.12595e-07 1.12595e-07 1.82049e-07 1.82049e-07 6.49849e-11 6.4986e-11 -1.98597e-10 -1.98597e-10 6.4986e-11 6.49843e-11 -1.98597e-10 -1.98598e-10 -1.98597e-10 -1.98597e-10 6.96708e-10 6.96709e-10 -1.98597e-10 -1.98598e-10 6.96709e-10 6.96709e-10 6.49843e-11 6.49848e-11 -1.98598e-10 -1.98598e-10 6.49848e-11 6.49847e-11 -1.98598e-10 -1.98598e-10 -1.98598e-10 -1.98598e-10 6.96709e-10 6.96709e-10 -1.98598e-10 -1.98598e-10 6.96709e-10 6.96709e-10 6.96708e-10 6.96709e-10 -1.4274e-09 -1.4274e-09 6.96709e-10 6.96709e-10 -1.4274e-09 -1.4274e-09 -1.4274e-09 -1.4274e-09 -2.499e-10 -2.499e-10 -1.4274e-09 -1.4274e-09 -2.499e-10 -2.49901e-10 6.96709e-10 6.96709e-10 -1.4274e-09 -1.4274e-09 6.96709e-10 6.96709e-10 -1.4274e-09 -1.42741e-09 -1.4274e-09 -1.4274e-09 -2.49901e-10 -2.49899e-10 -1.4274e-09 -1.42741e-09 -2.49899e-10 -2.49898e-10 6.49847e-11 6.49846e-11 -1.98598e-10 -1.98598e-10 6.49846e-11 6.49845e-11 -1.98598e-10 -1.98598e-10 -1.98598e-10 -1.98598e-10 6.96709e-10 6.9671e-10 -1.98598e-10 -1.98598e-10 6.9671e-10 6.96711e-10 6.49845e-11 6.49845e-11 -1.98598e-10 -1.98598e-10 6.49845e-11 6.49844e-11 -1.98598e-10 -1.98598e-10 -1.98598e-10 -1.98598e-10 6.96711e-10 6.96713e-10 -1.98598e-10 -1.98598e-10 6.96713e-10 6.96714e-10 6.96709e-10 6.9671e-10 -1.42741e-09 -1.42741e-09 6.9671e-10 6.96711e-10 -1.42741e-09 -1.42741e-09 -1.42741e-09 -1.42741e-09 -2.49898e-10 -2.49909e-10 -1.42741e-09 -1.42741e-09 -2.49909e-10 -2.49929e-10 6.96711e-10 6.96713e-10 -1.42741e-09 -1.42741e-09 6.96713e-10 6.96714e-10 -1.42741e-09 -1.42741e-09 -1.42741e-09 -1.42741e-09 -2.49929e-10 -2.49945e-10 -1.42741e-09 -1.42741e-09 -2.49945e-10 -2.4995e-10 -2.499e-10 -2.499e-10 1.54143e-08 1.54143e-08 -2.499e-10 -2.49901e-10 1.54143e-08 1.54143e-08 1.54143e-08 1.54143e-08 -6.43911e-08 -6.43911e-08 1.54143e-08 1.54143e-08 -6.43911e-08 -6.43911e-08 -2.49901e-10 -2.49899e-10 1.54143e-08 1.54144e-08 -2.49899e-10 -2.49898e-10 1.54144e-08 1.54144e-08 1.54143e-08 1.54144e-08 -6.43911e-08 -6.43911e-08 1.54144e-08 1.54144e-08 -6.43911e-08 -6.43911e-08 -6.43911e-08 -6.43911e-08 1.12595e-07 1.12595e-07 -6.43911e-08 -6.43911e-08 1.12595e-07 1.12595e-07 1.12595e-07 1.12595e-07 1.82049e-07 1.82049e-07 1.12595e-07 1.12595e-07 1.82049e-07 1.8205e-07 -6.43911e-08 -6.43911e-08 1.12595e-07 1.12595e-07 -6.43911e-08 -6.43911e-08 1.12595e-07 1.12595e-07 1.12595e-07 1.12595e-07 1.8205e-07 1.82049e-07 1.12595e-07 1.12595e-07 1.82049e-07 1.82048e-07 -2.49898e-10 -2.49909e-10 1.54144e-08 1.54144e-08 -2.49909e-10 -2.49929e-10 1.54144e-08 1.54145e-08 1.54144e-08 1.54144e-08 -6.43911e-08 -6.43909e-08 1.54144e-08 1.54145e-08 -6.43909e-08 -6.43908e-08 -2.49929e-10 -2.49945e-10 1.54145e-08 1.54145e-08 -2.49945e-10 -2.4995e-10 1.54145e-08 1.54146e-08 1.54145e-08 1.54145e-08 -6.43908e-08 -6.43907e-08 1.54145e-08 1.54146e-08 -6.43907e-08 -6.43907e-08 -6.43911e-08 -6.43909e-08 1.12595e-07 1.12594e-07 -6.43909e-08 -6.43908e-08 1.12594e-07 1.12593e-07 1.12595e-07 1.12594e-07 1.82048e-07 1.82047e-07 1.12594e-07 1.12593e-07 1.82047e-07 1.82045e-07 -6.43908e-08 -6.43907e-08 1.12593e-07 1.12592e-07 -6.43907e-08 -6.43907e-08 1.12592e-07 1.12592e-07 1.12593e-07 1.12592e-07 1.82045e-07 1.82042e-07 1.12592e-07 1.12592e-07 1.82042e-07 1.82041e-07 1.82049e-07 1.82049e-07 -1.56257e-06 -1.56257e-06 1.82049e-07 1.82049e-07 -1.56257e-06 -1.56257e-06 -1.56257e-06 -1.56257e-06 2.34018e-06 2.34018e-06 -1.56257e-06 -1.56257e-06 2.34018e-06 2.34018e-06 1.82049e-07 1.82049e-07 -1.56257e-06 -1.56257e-06 1.82049e-07 1.82049e-07 -1.56257e-06 -1.56257e-06 -1.56257e-06 -1.56257e-06 2.34018e-06 2.34018e-06 -1.56257e-06 -1.56257e-06 2.34018e-06 2.34018e-06 2.34018e-06 2.34018e-06 8.98483e-06 8.98483e-06 2.34018e-06 2.34018e-06 8.98483e-06 8.98483e-06 8.98483e-06 8.98483e-06 -2.29539e-05 -2.29539e-05 8.98483e-06 8.98483e-06 -2.29539e-05 -2.29539e-05 2.34018e-06 2.34018e-06 8.98483e-06 8.98483e-06 2.34018e-06 2.34018e-06 8.98483e-06 8.98483e-06 8.98483e-06 8.98483e-06 -2.29539e-05 -2.29539e-05 8.98483e-06 8.98483e-06 -2.29539e-05 -2.29539e-05 1.82049e-07 1.82049e-07 -1.56257e-06 -1.56257e-06 1.82049e-07 1.82049e-07 -1.56257e-06 -1.56257e-06 -1.56257e-06 -1.56257e-06 2.34018e-06 2.34018e-06 -1.562