# vtk DataFile Version 3.0
#This file was generated by the deal.II library on 2022/11/16 at 21:29:08
ASCII
DATASET UNSTRUCTURED_GRID

POINTS 4096 double
0 0.5 0
0.03125 0.5 0
0 0.53125 0
0.03125 0.53125 0
0.03125 0.5 0
0.0625 0.5 0
0.03125 0.53125 0
0.0625 0.53125 0
0 0.53125 0
0.03125 0.53125 0
0 0.5625 0
0.03125 0.5625 0
0.03125 0.53125 0
0.0625 0.53125 0
0.03125 0.5625 0
0.0625 0.5625 0
0.0625 0.5 0
0.09375 0.5 0
0.0625 0.53125 0
0.09375 0.53125 0
0.09375 0.5 0
0.125 0.5 0
0.09375 0.53125 0
0.125 0.53125 0
0.0625 0.53125 0
0.09375 0.53125 0
0.0625 0.5625 0
0.09375 0.5625 0
0.09375 0.53125 0
0.125 0.53125 0
0.09375 0.5625 0
0.125 0.5625 0
0 0.5625 0
0.03125 0.5625 0
0 0.59375 0
0.03125 0.59375 0
0.03125 0.5625 0
0.0625 0.5625 0
0.03125 0.59375 0
0.0625 0.59375 0
0 0.59375 0
0.03125 0.59375 0
0 0.625 0
0.03125 0.625 0
0.03125 0.59375 0
0.0625 0.59375 0
0.03125 0.625 0
0.0625 0.625 0
0.0625 0.5625 0
0.09375 0.5625 0
0.0625 0.59375 0
0.09375 0.59375 0
0.09375 0.5625 0
0.125 0.5625 0
0.09375 0.59375 0
0.125 0.59375 0
0.0625 0.59375 0
0.09375 0.59375 0
0.0625 0.625 0
0.09375 0.625 0
0.09375 0.59375 0
0.125 0.59375 0
0.09375 0.625 0
0.125 0.625 0
0.125 0.5 0
0.15625 0.5 0
0.125 0.53125 0
0.15625 0.53125 0
0.15625 0.5 0
0.1875 0.5 0
0.15625 0.53125 0
0.1875 0.53125 0
0.125 0.53125 0
0.15625 0.53125 0
0.125 0.5625 0
0.15625 0.5625 0
0.15625 0.53125 0
0.1875 0.53125 0
0.15625 0.5625 0
0.1875 0.5625 0
0.1875 0.5 0
0.21875 0.5 0
0.1875 0.53125 0
0.21875 0.53125 0
0.21875 0.5 0
0.25 0.5 0
0.21875 0.53125 0
0.25 0.53125 0
0.1875 0.53125 0
0.21875 0.53125 0
0.1875 0.5625 0
0.21875 0.5625 0
0.21875 0.53125 0
0.25 0.53125 0
0.21875 0.5625 0
0.25 0.5625 0
0.125 0.5625 0
0.15625 0.5625 0
0.125 0.59375 0
0.15625 0.59375 0
0.15625 0.5625 0
0.1875 0.5625 0
0.15625 0.59375 0
0.1875 0.59375 0
0.125 0.59375 0
0.15625 0.59375 0
0.125 0.625 0
0.15625 0.625 0
0.15625 0.59375 0
0.1875 0.59375 0
0.15625 0.625 0
0.1875 0.625 0
0.1875 0.5625 0
0.21875 0.5625 0
0.1875 0.59375 0
0.21875 0.59375 0
0.21875 0.5625 0
0.25 0.5625 0
0.21875 0.59375 0
0.25 0.59375 0
0.1875 0.59375 0
0.21875 0.59375 0
0.1875 0.625 0
0.21875 0.625 0
0.21875 0.59375 0
0.25 0.59375 0
0.21875 0.625 0
0.25 0.625 0
0 0.625 0
0.03125 0.625 0
0 0.65625 0
0.03125 0.65625 0
0.03125 0.625 0
0.0625 0.625 0
0.03125 0.65625 0
0.0625 0.65625 0
0 0.65625 0
0.03125 0.65625 0
0 0.6875 0
0.03125 0.6875 0
0.03125 0.65625 0
0.0625 0.65625 0
0.03125 0.6875 0
0.0625 0.6875 0
0.0625 0.625 0
0.09375 0.625 0
0.0625 0.65625 0
0.09375 0.65625 0
0.09375 0.625 0
0.125 0.625 0
0.09375 0.65625 0
0.125 0.65625 0
0.0625 0.65625 0
0.09375 0.65625 0
0.0625 0.6875 0
0.09375 0.6875 0
0.09375 0.65625 0
0.125 0.65625 0
0.09375 0.6875 0
0.125 0.6875 0
0 0.6875 0
0.03125 0.6875 0
0 0.71875 0
0.03125 0.71875 0
0.03125 0.6875 0
0.0625 0.6875 0
0.03125 0.71875 0
0.0625 0.71875 0
0 0.71875 0
0.03125 0.71875 0
0 0.75 0
0.03125 0.75 0
0.03125 0.71875 0
0.0625 0.71875 0
0.03125 0.75 0
0.0625 0.75 0
0.0625 0.6875 0
0.09375 0.6875 0
0.0625 0.71875 0
0.09375 0.71875 0
0.09375 0.6875 0
0.125 0.6875 0
0.09375 0.71875 0
0.125 0.71875 0
0.0625 0.71875 0
0.09375 0.71875 0
0.0625 0.75 0
0.09375 0.75 0
0.09375 0.71875 0
0.125 0.71875 0
0.09375 0.75 0
0.125 0.75 0
0.125 0.625 0
0.15625 0.625 0
0.125 0.65625 0
0.15625 0.65625 0
0.15625 0.625 0
0.1875 0.625 0
0.15625 0.65625 0
0.1875 0.65625 0
0.125 0.65625 0
0.15625 0.65625 0
0.125 0.6875 0
0.15625 0.6875 0
0.15625 0.65625 0
0.1875 0.65625 0
0.15625 0.6875 0
0.1875 0.6875 0
0.1875 0.625 0
0.21875 0.625 0
0.1875 0.65625 0
0.21875 0.65625 0
0.21875 0.625 0
0.25 0.625 0
0.21875 0.65625 0
0.25 0.65625 0
0.1875 0.65625 0
0.21875 0.65625 0
0.1875 0.6875 0
0.21875 0.6875 0
0.21875 0.65625 0
0.25 0.65625 0
0.21875 0.6875 0
0.25 0.6875 0
0.125 0.6875 0
0.15625 0.6875 0
0.125 0.71875 0
0.15625 0.71875 0
0.15625 0.6875 0
0.1875 0.6875 0
0.15625 0.71875 0
0.1875 0.71875 0
0.125 0.71875 0
0.15625 0.71875 0
0.125 0.75 0
0.15625 0.75 0
0.15625 0.71875 0
0.1875 0.71875 0
0.15625 0.75 0
0.1875 0.75 0
0.1875 0.6875 0
0.21875 0.6875 0
0.1875 0.71875 0
0.21875 0.71875 0
0.21875 0.6875 0
0.25 0.6875 0
0.21875 0.71875 0
0.25 0.71875 0
0.1875 0.71875 0
0.21875 0.71875 0
0.1875 0.75 0
0.21875 0.75 0
0.21875 0.71875 0
0.25 0.71875 0
0.21875 0.75 0
0.25 0.75 0
0.25 0.5 0
0.28125 0.5 0
0.25 0.53125 0
0.28125 0.53125 0
0.28125 0.5 0
0.3125 0.5 0
0.28125 0.53125 0
0.3125 0.53125 0
0.25 0.53125 0
0.28125 0.53125 0
0.25 0.5625 0
0.28125 0.5625 0
0.28125 0.53125 0
0.3125 0.53125 0
0.28125 0.5625 0
0.3125 0.5625 0
0.3125 0.5 0
0.34375 0.5 0
0.3125 0.53125 0
0.34375 0.53125 0
0.34375 0.5 0
0.375 0.5 0
0.34375 0.53125 0
0.375 0.53125 0
0.3125 0.53125 0
0.34375 0.53125 0
0.3125 0.5625 0
0.34375 0.5625 0
0.34375 0.53125 0
0.375 0.53125 0
0.34375 0.5625 0
0.375 0.5625 0
0.25 0.5625 0
0.28125 0.5625 0
0.25 0.59375 0
0.28125 0.59375 0
0.28125 0.5625 0
0.3125 0.5625 0
0.28125 0.59375 0
0.3125 0.59375 0
0.25 0.59375 0
0.28125 0.59375 0
0.25 0.625 0
0.28125 0.625 0
0.28125 0.59375 0
0.3125 0.59375 0
0.28125 0.625 0
0.3125 0.625 0
0.3125 0.5625 0
0.34375 0.5625 0
0.3125 0.59375 0
0.34375 0.59375 0
0.34375 0.5625 0
0.375 0.5625 0
0.34375 0.59375 0
0.375 0.59375 0
0.3125 0.59375 0
0.34375 0.59375 0
0.3125 0.625 0
0.34375 0.625 0
0.34375 0.59375 0
0.375 0.59375 0
0.34375 0.625 0
0.375 0.625 0
0.375 0.5 0
0.40625 0.5 0
0.375 0.53125 0
0.40625 0.53125 0
0.40625 0.5 0
0.4375 0.5 0
0.40625 0.53125 0
0.4375 0.53125 0
0.375 0.53125 0
0.40625 0.53125 0
0.375 0.5625 0
0.40625 0.5625 0
0.40625 0.53125 0
0.4375 0.53125 0
0.40625 0.5625 0
0.4375 0.5625 0
0.4375 0.5 0
0.46875 0.5 0
0.4375 0.53125 0
0.46875 0.53125 0
0.46875 0.5 0
0.5 0.5 0
0.46875 0.53125 0
0.5 0.53125 0
0.4375 0.53125 0
0.46875 0.53125 0
0.4375 0.5625 0
0.46875 0.5625 0
0.46875 0.53125 0
0.5 0.53125 0
0.46875 0.5625 0
0.5 0.5625 0
0.375 0.5625 0
0.40625 0.5625 0
0.375 0.59375 0
0.40625 0.59375 0
0.40625 0.5625 0
0.4375 0.5625 0
0.40625 0.59375 0
0.4375 0.59375 0
0.375 0.59375 0
0.40625 0.59375 0
0.375 0.625 0
0.40625 0.625 0
0.40625 0.59375 0
0.4375 0.59375 0
0.40625 0.625 0
0.4375 0.625 0
0.4375 0.5625 0
0.46875 0.5625 0
0.4375 0.59375 0
0.46875 0.59375 0
0.46875 0.5625 0
0.5 0.5625 0
0.46875 0.59375 0
0.5 0.59375 0
0.4375 0.59375 0
0.46875 0.59375 0
0.4375 0.625 0
0.46875 0.625 0
0.46875 0.59375 0
0.5 0.59375 0
0.46875 0.625 0
0.5 0.625 0
0.25 0.625 0
0.28125 0.625 0
0.25 0.65625 0
0.28125 0.65625 0
0.28125 0.625 0
0.3125 0.625 0
0.28125 0.65625 0
0.3125 0.65625 0
0.25 0.65625 0
0.28125 0.65625 0
0.25 0.6875 0
0.28125 0.6875 0
0.28125 0.65625 0
0.3125 0.65625 0
0.28125 0.6875 0
0.3125 0.6875 0
0.3125 0.625 0
0.34375 0.625 0
0.3125 0.65625 0
0.34375 0.65625 0
0.34375 0.625 0
0.375 0.625 0
0.34375 0.65625 0
0.375 0.65625 0
0.3125 0.65625 0
0.34375 0.65625 0
0.3125 0.6875 0
0.34375 0.6875 0
0.34375 0.65625 0
0.375 0.65625 0
0.34375 0.6875 0
0.375 0.6875 0
0.25 0.6875 0
0.28125 0.6875 0
0.25 0.71875 0
0.28125 0.71875 0
0.28125 0.6875 0
0.3125 0.6875 0
0.28125 0.71875 0
0.3125 0.71875 0
0.25 0.71875 0
0.28125 0.71875 0
0.25 0.75 0
0.28125 0.75 0
0.28125 0.71875 0
0.3125 0.71875 0
0.28125 0.75 0
0.3125 0.75 0
0.3125 0.6875 0
0.34375 0.6875 0
0.3125 0.71875 0
0.34375 0.71875 0
0.34375 0.6875 0
0.375 0.6875 0
0.34375 0.71875 0
0.375 0.71875 0
0.3125 0.71875 0
0.34375 0.71875 0
0.3125 0.75 0
0.34375 0.75 0
0.34375 0.71875 0
0.375 0.71875 0
0.34375 0.75 0
0.375 0.75 0
0.375 0.625 0
0.40625 0.625 0
0.375 0.65625 0
0.40625 0.65625 0
0.40625 0.625 0
0.4375 0.625 0
0.40625 0.65625 0
0.4375 0.65625 0
0.375 0.65625 0
0.40625 0.65625 0
0.375 0.6875 0
0.40625 0.6875 0
0.40625 0.65625 0
0.4375 0.65625 0
0.40625 0.6875 0
0.4375 0.6875 0
0.4375 0.625 0
0.46875 0.625 0
0.4375 0.65625 0
0.46875 0.65625 0
0.46875 0.625 0
0.5 0.625 0
0.46875 0.65625 0
0.5 0.65625 0
0.4375 0.65625 0
0.46875 0.65625 0
0.4375 0.6875 0
0.46875 0.6875 0
0.46875 0.65625 0
0.5 0.65625 0
0.46875 0.6875 0
0.5 0.6875 0
0.375 0.6875 0
0.40625 0.6875 0
0.375 0.71875 0
0.40625 0.71875 0
0.40625 0.6875 0
0.4375 0.6875 0
0.40625 0.71875 0
0.4375 0.71875 0
0.375 0.71875 0
0.40625 0.71875 0
0.375 0.75 0
0.40625 0.75 0
0.40625 0.71875 0
0.4375 0.71875 0
0.40625 0.75 0
0.4375 0.75 0
0.4375 0.6875 0
0.46875 0.6875 0
0.4375 0.71875 0
0.46875 0.71875 0
0.46875 0.6875 0
0.5 0.6875 0
0.46875 0.71875 0
0.5 0.71875 0
0.4375 0.71875 0
0.46875 0.71875 0
0.4375 0.75 0
0.46875 0.75 0
0.46875 0.71875 0
0.5 0.71875 0
0.46875 0.75 0
0.5 0.75 0
0 0.75 0
0.03125 0.75 0
0 0.78125 0
0.03125 0.78125 0
0.03125 0.75 0
0.0625 0.75 0
0.03125 0.78125 0
0.0625 0.78125 0
0 0.78125 0
0.03125 0.78125 0
0 0.8125 0
0.03125 0.8125 0
0.03125 0.78125 0
0.0625 0.78125 0
0.03125 0.8125 0
0.0625 0.8125 0
0.0625 0.75 0
0.09375 0.75 0
0.0625 0.78125 0
0.09375 0.78125 0
0.09375 0.75 0
0.125 0.75 0
0.09375 0.78125 0
0.125 0.78125 0
0.0625 0.78125 0
0.09375 0.78125 0
0.0625 0.8125 0
0.09375 0.8125 0
0.09375 0.78125 0
0.125 0.78125 0
0.09375 0.8125 0
0.125 0.8125 0
0 0.8125 0
0.03125 0.8125 0
0 0.84375 0
0.03125 0.84375 0
0.03125 0.8125 0
0.0625 0.8125 0
0.03125 0.84375 0
0.0625 0.84375 0
0 0.84375 0
0.03125 0.84375 0
0 0.875 0
0.03125 0.875 0
0.03125 0.84375 0
0.0625 0.84375 0
0.03125 0.875 0
0.0625 0.875 0
0.0625 0.8125 0
0.09375 0.8125 0
0.0625 0.84375 0
0.09375 0.84375 0
0.09375 0.8125 0
0.125 0.8125 0
0.09375 0.84375 0
0.125 0.84375 0
0.0625 0.84375 0
0.09375 0.84375 0
0.0625 0.875 0
0.09375 0.875 0
0.09375 0.84375 0
0.125 0.84375 0
0.09375 0.875 0
0.125 0.875 0
0.125 0.75 0
0.15625 0.75 0
0.125 0.78125 0
0.15625 0.78125 0
0.15625 0.75 0
0.1875 0.75 0
0.15625 0.78125 0
0.1875 0.78125 0
0.125 0.78125 0
0.15625 0.78125 0
0.125 0.8125 0
0.15625 0.8125 0
0.15625 0.78125 0
0.1875 0.78125 0
0.15625 0.8125 0
0.1875 0.8125 0
0.1875 0.75 0
0.21875 0.75 0
0.1875 0.78125 0
0.21875 0.78125 0
0.21875 0.75 0
0.25 0.75 0
0.21875 0.78125 0
0.25 0.78125 0
0.1875 0.78125 0
0.21875 0.78125 0
0.1875 0.8125 0
0.21875 0.8125 0
0.21875 0.78125 0
0.25 0.78125 0
0.21875 0.8125 0
0.25 0.8125 0
0.125 0.8125 0
0.15625 0.8125 0
0.125 0.84375 0
0.15625 0.84375 0
0.15625 0.8125 0
[...]
POINT_DATA 4096
SCALARS x_dis double 1
LOOKUP_TABLE default
-1.03456e-05 -1.03452e-05 -6.12396e-05 -6.12388e-05 -1.03452e-05 -1.0344e-05 -6.12388e-05 -6.12372e-05 -6.12396e-05 -6.12388e-05 -0.000140156 -0.000140155 -6.12388e-05 -6.12372e-05 -0.000140155 -0.000140152 -1.0344e-05 -1.03423e-05 -6.12372e-05 -6.1235e-05 -1.03423e-05 -1.03402e-05 -6.1235e-05 -6.12325e-05 -6.12372e-05 -6.1235e-05 -0.000140152 -0.000140149 -6.1235e-05 -6.12325e-05 -0.000140149 -0.000140146 -0.000140156 -0.000140155 -0.000236857 -0.000236854 -0.000140155 -0.000140152 -0.000236854 -0.000236851 -0.000236857 -0.000236854 -0.000342168 -0.000342163 -0.000236854 -0.000236851 -0.000342163 -0.000342158 -0.000140152 -0.000140149 -0.000236851 -0.000236847 -0.000140149 -0.000140146 -0.000236847 -0.000236843 -0.000236851 -0.000236847 -0.000342158 -0.000342153 -0.000236847 -0.000236843 -0.000342153 -0.000342148 -1.03402e-05 -1.03378e-05 -6.12325e-05 -6.12292e-05 -1.03378e-05 -1.0335e-05 -6.12292e-05 -6.12251e-05 -6.12325e-05 -6.12292e-05 -0.000140146 -0.000140142 -6.12292e-05 -6.12251e-05 -0.000140142 -0.000140137 -1.0335e-05 -1.0332e-05 -6.12251e-05 -6.12205e-05 -1.0332e-05 -1.03291e-05 -6.12205e-05 -6.12172e-05 -6.12251e-05 -6.12205e-05 -0.000140137 -0.000140131 -6.12205e-05 -6.12172e-05 -0.000140131 -0.000140127 -0.000140146 -0.000140142 -0.000236843 -0.000236838 -0.000140142 -0.000140137 -0.000236838 -0.000236832 -0.000236843 -0.000236838 -0.000342148 -0.000342143 -0.000236838 -0.000236832 -0.000342143 -0.000342136 -0.000140137 -0.000140131 -0.000236832 -0.000236825 -0.000140131 -0.000140127 -0.000236825 -0.00023682 -0.000236832 -0.000236825 -0.000342136 -0.000342128 -0.000236825 -0.00023682 -0.000342128 -0.000342121 -0.000342168 -0.000342163 -0.000450775 -0.000450769 -0.000342163 -0.000342158 -0.000450769 -0.000450762 -0.000450775 -0.000450769 -0.000560398 -0.00056039 -0.000450769 -0.000450762 -0.00056039 -0.000560382 -0.000342158 -0.000342153 -0.000450762 -0.000450756 -0.000342153 -0.000342148 -0.000450756 -0.00045075 -0.000450762 -0.000450756 -0.000560382 -0.000560375 -0.000450756 -0.00045075 -0.000560375 -0.000560367 -0.000560398 -0.00056039 -0.000670283 -0.000670273 -0.00056039 -0.000560382 -0.000670273 -0.000670264 -0.000670283 -0.000670273 -0.000780224 -0.000780213 -0.000670273 -0.000670264 -0.000780213 -0.000780202 -0.000560382 -0.000560375 -0.000670264 -0.000670255 -0.000560375 -0.000560367 -0.000670255 -0.000670247 -0.000670264 -0.000670255 -0.000780202 -0.000780192 -0.000670255 -0.000670247 -0.000780192 -0.000780182 -0.000342148 -0.000342143 -0.00045075 -0.000450744 -0.000342143 -0.000342136 -0.000450744 -0.000450737 -0.00045075 -0.000450744 -0.000560367 -0.00056036 -0.000450744 -0.000450737 -0.00056036 -0.000560353 -0.000342136 -0.000342128 -0.000450737 -0.000450728 -0.000342128 -0.000342121 -0.000450728 -0.00045072 -0.000450737 -0.000450728 -0.000560353 -0.000560345 -0.000450728 -0.00045072 -0.000560345 -0.000560336 -0.000560367 -0.00056036 -0.000670247 -0.000670239 -0.00056036 -0.000560353 -0.000670239 -0.000670232 -0.000670247 -0.000670239 -0.000780182 -0.000780174 -0.000670239 -0.000670232 -0.000780174 -0.000780166 -0.000560353 -0.000560345 -0.000670232 -0.000670224 -0.000560345 -0.000560336 -0.000670224 -0.000670216 -0.000670232 -0.000670224 -0.000780166 -0.000780158 -0.000670224 -0.000670216 -0.000780158 -0.000780151 -1.03291e-05 -1.03267e-05 -6.12172e-05 -6.12195e-05 -1.03267e-05 -1.03254e-05 -6.12195e-05 -6.12343e-05 -6.12172e-05 -6.12195e-05 -0.000140127 -0.000140131 -6.12195e-05 -6.12343e-05 -0.000140131 -0.000140151 -1.03254e-05 -1.03237e-05 -6.12343e-05 -6.12555e-05 -1.03237e-05 -1.03188e-05 -6.12555e-05 -6.12267e-05 -6.12343e-05 -6.12555e-05 -0.000140151 -0.000140184 -6.12555e-05 -6.12267e-05 -0.000140184 -0.000140173 -0.000140127 -0.000140131 -0.00023682 -0.000236823 -0.000140131 -0.000140151 -0.000236823 -0.000236839 -0.00023682 -0.000236823 -0.000342121 -0.000342121 -0.000236823 -0.000236839 -0.000342121 -0.000342132 -0.000140151 -0.000140184 -0.000236839 -0.000236868 -0.000140184 -0.000140173 -0.000236868 -0.000236878 -0.000236839 -0.000236868 -0.000342132 -0.000342152 -0.000236868 -0.000236878 -0.000342152 -0.000342162 -1.03188e-05 -1.03111e-05 -6.12267e-05 -6.10264e-05 -1.03111e-05 -1.03098e-05 -6.10264e-05 -6.05429e-05 -6.12267e-05 -6.10264e-05 -0.000140173 -0.000139995 -6.10264e-05 -6.05429e-05 -0.000139995 -0.000139543 -1.03098e-05 -1.03301e-05 -6.05429e-05 -5.98388e-05 -1.03301e-05 -1.03582e-05 -5.98388e-05 -5.95512e-05 -6.05429e-05 -5.98388e-05 -0.000139543 -0.000138845 -5.98388e-05 -5.95512e-05 -0.000138845 -0.000137513 -0.000140173 -0.000139995 -0.000236878 -0.000236817 -0.000139995 -0.000139543 -0.000236817 -0.000236686 -0.000236878 -0.000236817 -0.000342162 -0.000342147 -0.000236817 -0.000236686 -0.000342147 -0.000342136 -0.000139543 -0.000138845 -0.000236686 -0.000236527 -0.000138845 -0.000137513 -0.000236527 -0.000236536 -0.000236686 -0.000236527 -0.000342136 -0.000342253 -0.000236527 -0.000236536 -0.000342253 -0.000342595 -0.000342121 -0.000342121 -0.00045072 -0.000450716 -0.000342121 -0.000342132 -0.000450716 -0.00045072 -0.00045072 -0.000450716 -0.000560336 -0.000560329 -0.000450716 -0.00045072 -0.000560329 -0.000560325 -0.000342132 -0.000342152 -0.00045072 -0.000450735 -0.000342152 -0.000342162 -0.000450735 -0.000450749 -0.00045072 -0.000450735 -0.000560325 -0.000560331 -0.000450735 -0.000450749 -0.000560331 -0.000560347 -0.000560336 -0.000560329 -0.000670216 -0.000670207 -0.000560329 -0.000560325 -0.000670207 -0.000670199 -0.000670216 -0.000670207 -0.000780151 -0.000780143 -0.000670207 -0.000670199 -0.000780143 -0.000780135 -0.000560325 -0.000560331 -0.000670199 -0.000670194 -0.000560331 -0.000560347 -0.000670194 -0.000670196 -0.000670199 -0.000670194 -0.000780135 -0.000780127 -0.000670194 -0.000670196 -0.000780127 -0.000780119 -0.000342162 -0.000342147 -0.000450749 -0.000450742 -0.000342147 -0.000342136 -0.000450742 -0.000450711 -0.000450749 -0.000450742 -0.000560347 -0.00056036 -0.000450742 -0.000450711 -0.00056036 -0.000560347 -0.000342136 -0.000342253 -0.000450711 -0.000450695 -0.000342253 -0.000342595 -0.000450695 -0.000450732 -0.000450711 -0.000450695 -0.000560347 -0.000560292 -0.000450695 -0.000450732 -0.000560292 -0.000560193 -0.000560347 -0.00056036 -0.000670196 -0.000670208 -0.00056036 -0.000560347 -0.000670208 -0.00067022 -0.000670196 -0.000670208 -0.000780119 -0.000780113 -0.000670208 -0.00067022 -0.000780113 -0.000780114 -0.000560347 -0.000560292 -0.00067022 -0.000670219 -0.000560292 -0.000560193 -0.000670219 -0.000670195 -0.00067022 -0.000670219 -0.000780114 -0.000780119 -0.000670219 -0.000670195 -0.000780119 -0.000780127 -0.000780224 -0.000780213 -0.000890181 -0.000890168 -0.000780213 -0.000780202 -0.000890168 -0.000890156 -0.000890181 -0.000890168 -0.00100015 -0.00100013 -0.000890168 -0.000890156 -0.00100013 -0.00100012 -0.000780202 -0.000780192 -0.000890156 -0.000890145 -0.000780192 -0.000780182 -0.000890145 -0.000890134 -0.000890156 -0.000890145 -0.00100012 -0.0010001 -0.000890145 -0.000890134 -0.0010001 -0.00100009 -0.00100015 -0.00100013 -0.00111012 -0.0011101 -0.00100013 -0.00100012 -0.0011101 -0.00111008 -0.00111012 -0.0011101 -0.0012201 -0.00122008 -0.0011101 -0.00111008 -0.00122008 -0.00122006 -0.00100012 -0.0010001 -0.00111008 -0.00111007 -0.0010001 -0.00100009 -0.00111007 -0.00111006 -0.00111008 -0.00111007 -0.00122006 -0.00122004 -0.00111007 -0.00111006 -0.00122004 -0.00122003 -0.000780182 -0.000780174 -0.000890134 -0.000890125 -0.000780174 -0.000780166 -0.000890125 -0.000890116 -0.000890134 -0.000890125 -0.00100009 -0.00100008 -0.000890125 -0.000890116 -0.00100008 -0.00100007 -0.000780166 -0.000780158 -0.000890116 -0.000890109 -0.000780158 -0.000780151 -0.000890109 -0.000890102 -0.000890116 -0.000890109 -0.00100007 -0.00100007 -0.000890109 -0.000890102 -0.00100007 -0.00100006 -0.00100009 -0.00100008 -0.00111006 -0.00111005 -0.00100008 -0.00100007 -0.00111005 -0.00111004 -0.00111006 -0.00111005 -0.00122003 -0.00122002 -0.00111005 -0.00111004 -0.00122002 -0.00122001 -0.00100007 -0.00100007 -0.00111004 -0.00111003 -0.00100007 -0.00100006 -0.00111003 -0.00111003 -0.00111004 -0.00111003 -0.00122001 -0.00122001 -0.00111003 -0.00111003 -0.00122001 -0.00122 -0.0012201 -0.00122008 -0.00133008 -0.00133006 -0.00122008 -0.00122006 -0.00133006 -0.00133004 -0.00133008 -0.00133006 -0.00144007 -0.00144004 -0.00133006 -0.00133004 -0.00144004 -0.00144002 -0.00122006 -0.00122004 -0.00133004 -0.00133002 -0.00122004 -0.00122003 -0.00133002 -0.00133001 -0.00133004 -0.00133002 -0.00144002 -0.00144001 -0.00133002 -0.00133001 -0.00144001 -0.00144 -0.00144007 -0.00144004 -0.00155005 -0.00155002 -0.00144004 -0.00144002 -0.00155002 -0.00155001 -0.00155005 -0.00155002 -0.00166 -0.00166 -0.00155002 -0.00155001 -0.00166 -0.00166 -0.00144002 -0.00144001 -0.00155001 -0.00155 -0.00144001 -0.00144 -0.00155 -0.00155 -0.00155001 -0.00155 -0.00166 -0.00166 -0.00155 -0.00155 -0.00166 -0.00166 -0.00122003 -0.00122002 -0.00133001 -0.00133 -0.00122002 -0.00122001 -0.00133 -0.00133 -0.00133001 -0.00133 -0.00144 -0.00143999 -0.00133 -0.00133 -0.00143999 -0.00143999 -0.00122001 -0.00122001 -0.00133 -0.00132999 -0.00122001 -0.00122 -0.00132999 -0.00132999 -0.00133 -0.00132999 -0.00143999 -0.00143998 -0.00132999 -0.00132999 -0.00143998 -0.00143998 -0.00144 -0.00143999 -0.00155 -0.00154999 -0.00143999 -0.00143999 -0.00154999 -0.00154999 -0.00155 -0.00154999 -0.00166 -0.00166 -0.00154999 -0.00154999 -0.00166 -0.00166 -0.00143999 -0.00143998 -0.00154999 -0.00154999 -0.00143998 -0.00143998 -0.00154999 -0.00154999 -0.00154999 -0.00154999 -0.00166 -0.00166 -0.00154999 -0.00154999 -0.00166 -0.00166 -0.000780151 -0.000780143 -0.000890102 -0.000890095 -0.000780143 -0.000780135 -0.000890095 -0.000890088 -0.000890102 -0.000890095 -0.00100006 -0.00100005 -0.000890095 -0.000890088 -0.00100005 -0.00100005 -0.000780135 -0.000780127 -0.000890088 -0.000890082 -0.000780127 -0.000780119 -0.000890082 -0.000890074 -0.000890088 -0.000890082 -0.00100005 -0.00100004 -0.000890082 -0.000890074 -0.00100004 -0.00100004 -0.00100006 -0.00100005 -0.00111003 -0.00111002 -0.00100005 -0.00100005 -0.00111002 -0.00111002 -0.00111003 -0.00111002 -0.00122 -0.00122 -0.00111002 -0.00111002 -0.00122 -0.00121999 -0.00100005 -0.00100004 -0.00111002 -0.00111001 -0.00100004 -0.00100004 -0.00111001 -0.00111001 -0.00111002 -0.00111001 -0.00121999 -0.00121999 -0.00111001 -0.00111001 -0.00121999 -0.00121999 -0.000780119 -0.000780113 -0.000890074 -0.000890066 -0.000780113 -0.000780114 -0.000890066 -0.000890057 -0.000890074 -0.000890066 -0.00100004 -0.00100003 -0.000890066 -0.000890057 -0.00100003 -0.00100003 -0.000780114 -0.000780119 -0.000890057 -0.000890049 -0.000780119 -0.000780127 -0.000890049 -0.000890044 -0.000890057 -0.000890049 -0.00100003 -0.00100002 -0.000890049 -0.000890044 -0.00100002 -0.00100002 -0.00100004 -0.00100003 -0.00111001 -0.00111 -0.00100003 -0.00100003 -0.00111 -0.00111 -0.00111001 -0.00111 -0.00121999 -0.00121998 -0.00111 -0.00111 -0.00121998 -0.00121998 -0.00100003 -0.00100002 -0.00111 -0.00111 -0.00100002 -0.00100002 -0.00111 -0.00110999 -0.00111 -0.00111 -0.00121998 -0.00121997 -0.00111 -0.00110999 -0.00121997 -0.00121997 -0.00122 -0.00122 -0.00132999 -0.00132998 -0.00122 -0.00121999 -0.00132998 -0.00132998 -0.00132999 -0.00132998 -0.00143998 -0.00143998 -0.00132998 -0.00132998 -0.00143998 -0.00143998 -0.00121999 -0.00121999 -0.00132998 -0.00132998 -0.00121999 -0.00121999 -0.00132998 -0.00132997 -0.00132998 -0.00132998 -0.00143998 -0.00143997 -0.00132998 -0.00132997 -0.00143997 -0.00143997 -0.00143998 -0.00143998 -0.00154999 -0.00154998 -0.00143998 -0.00143998 -0.00154998 -0.00154998 -0.00154999 -0.00154998 -0.00166 -0.00166 -0.00154998 -0.00154998 -0.00166 -0.00166 -0.00143998 -0.00143997 -0.00154998 -0.00154998 -0.00143997 -0.00143997 -0.00154998 -0.00154998 -0.00154998 -0.00154998 -0.00166 -0.00166 -0.00154998 -0.00154998 -0.00166 -0.00166 -0.00121999 -0.00121998 -0.00132997 -0.00132997 -0.00121998 -0.00121998 -0.00132997 -0.00132997 -0.00132997 -0.00132997 -0.00143997 -0.00143997 -0.00132997 -0.00132997 -0.00143997 -0.00143997 -0.00121998 -0.00121997 -0.00132997 -0.00132996 -0.00121997 -0.00121997 -0.00132996 -0.00132996 -0.00132997 -0.00132996 -0.00143997 -0.00143997 -0.00132996 -0.00132996 -0.00143997 -0.00143996 -0.00143997 -0.00143997 -0.00154998 -0.00154998 -0.00143997 -0.00143997 -0.00154998 -0.00154998 -0.00154998 -0.00154998 -0.00166 -0.00166 -0.00154998 -0.00154998 -0.00166 -0.00166 -0.00143997 -0.00143997 -0.00154998 -0.00154998 -0.00143997 -0.00143996 -0.00154998 -0.00154998 -0.00154998 -0.00154998 -0.00166 -0.00166 -0.00154998 -0.00154998 -0.00166 -0.00166 -1.03582e-05 -2.35791e-05 -5.95512e-05 -5.68813e-05 -2.35791e-05 -2.47596e-05 -5.68813e-05 -5.57432e-05 -5.95512e-05 -5.68813e-05 -0.000137513 -0.000136235 -5.68813e-05 -5.57432e-05 -0.000136235 -0.00013503 -2.47596e-05 -2.29315e-05 -5.57432e-05 -5.416e-05 -2.29315e-05 -2.13982e-05 -5.416e-05 -5.2713e-05 -5.57432e-05 -5.416e-05 -0.00013503 -0.000134317 -5.416e-05 -5.2713e-05 -0.000134317 -0.000133723 -0.000137513 -0.000136235 -0.000236536 -0.000236716 -0.000136235 -0.00013503 -0.000236716 -0.000237024 -0.000236536 -0.000236716 -0.000342595 -0.000343113 -0.000236716 -0.000237024 -0.000343113 -0.000343558 -0.00013503 -0.000134317 -0.000237024 -0.000237162 -0.000134317 -0.000133723 -0.000237162 -0.000237125 -0.000237024 -0.000237162 -0.000343558 -0.000343748 -0.000237162 -0.000237125 -0.000343748 -0.000343714 -2.13982e-05 -2.05838e-05 -5.2713e-05 -5.1954e-05 -2.05838e-05 -2.02992e-05 -5.1954e-05 -5.18354e-05 -5.2713e-05 -5.1954e-05 -0.000133723 -0.000133403 -5.1954e-05 -5.18354e-05 -0.000133403 -0.000133393 -2.02992e-05 -2.03553e-05 -5.18354e-05 -5.19916e-05 -2.03553e-05 -2.05218e-05 -5.19916e-05 -5.21345e-05 -5.18354e-05 -5.19916e-05 -0.000133393 -0.00013351 -5.19916e-05 -5.21345e-05 -0.00013351 -0.000133595 -0.000133723 -0.000133403 -0.000237125 -0.000237043 -0.000133403 -0.000133393 -0.000237043 -0.000237043 -0.000237125 -0.000237043 -0.000343714 -0.000343646 -0.000237043 -0.000237043 -0.000343646 -0.000343643 -0.000133393 -0.00013351 -0.000237043 -0.000237102 -0.00013351 -0.000133595 -0.000237102 -0.000237153 -0.000237043 -0.000237102 -0.000343643 -0.000343688 -0.000237102 -0.000237153 -0.000343688 -0.000343727 -0.000342595 -0.000343113 -0.000450732 -0.000450787 -0.000343113 -0.000343558 -0.000450787 -0.000450782 -0.000450732 -0.000450787 -0.000560193 -0.000560063 -0.000450787 -0.000450782 -0.000560063 -0.000559929 -0.000343558 -0.000343748 -0.000450782 -0.00045069 -0.000343748 -0.000343714 -0.00045069 -0.000450588 -0.000450782 -0.00045069 -0.000559929 -0.000559834 -0.00045069 -0.000450588 -0.000559834 -0.000559808 -0.000560193 -0.000560063 -0.000670195 -0.00067016 -0.000560063 -0.000559929 -0.00067016 -0.000670138 -0.000670195 -0.00067016 -0.000780127 -0.000780138 -0.00067016 -0.000670138 -0.000780138 -0.000780152 -0.000559929 -0.000559834 -0.000670138 -0.000670144 -0.000559834 -0.000559808 -0.000670144 -0.000670172 -0.000670138 -0.000670144 -0.000780152 -0.000780165 -0.000670144 -0.000670172 -0.000780165 -0.000780171 -0.000343714 -0.000343646 -0.000450588 -0.000450553 -0.000343646 -0.000343643 -0.000450553 -0.000450584 -0.000450588 -0.000450553 -0.000559808 -0.000559837 -0.000450553 -0.000450584 -0.000559837 -0.000559877 -0.000343643 -0.000343688 -0.000450584 -0.000450627 -0.000343688 -0.000343727 -0.000450627 -0.000450648 -0.000450584 -0.000450627 -0.000559877 -0.000559896 -0.000450627 -0.000450648 -0.000559896 -0.000559893 -0.000559808 -0.000559837 -0.000670172 -0.000670199 -0.000559837 -0.000559877 -0.000670199 -0.000670207 -0.000670172 -0.000670199 -0.000780171 -0.000780166 -0.000670199 -0.000670207 -0.000780166 -0.000780155 -0.000559877 -0.000559896 -0.000670207 -0.0006702 -0.000559896 -0.000559893 -0.0006702 -0.000670189 -0.000670207 -0.0006702 -0.000780155 -0.000780145 -0.0006702 -0.000670189 -0.000780145 -0.000780136 -2.05218e-05 -2.0613e-05 -5.21345e-05 -5.2181e-05 -2.0613e-05 -2.06082e-05 -5.2181e-05 -5.21658e-05 -5.21345e-05 -5.2181e-05 -0.000133595 -0.000133618 -5.2181e-05 -5.21658e-05 -0.000133618 -0.000133608 -2.06082e-05 -2.0575e-05 -5.21658e-05 -5.21394e-05 -2.0575e-05 -2.05553e-05 -5.21394e-05 -5.21257e-05 -5.21658e-05 -5.21394e-05 -0.000133608 -0.000133592 -5.21394e-05 -5.21257e-05 -0.000133592 -0.000133581 -0.000133595 -0.000133618 -0.000237153 -0.000237172 -0.000133618 -0.000133608 -0.000237172 -0.000237168 -0.000237153 -0.000237172 -0.000343727 -0.000343739 -0.000237172 -0.000237168 -0.000343739 -0.000343729 -0.000133608 -0.000133592 -0.000237168 -0.000237154 -0.000133592 -0.000133581 -0.000237154 -0.000237143 -0.000237168 -0.000237154 -0.000343729 -0.000343715 -0.000237154 -0.000237143 -0.000343715 -0.000343705 -2.05553e-05 -2.05504e-05 -5.21257e-05 -5.2123e-05 -2.05504e-05 -2.05502e-05 -5.2123e-05 -5.21228e-05 -5.21257e-05 -5.2123e-05 -0.000133581 -0.000133577 -5.2123e-05 -5.21228e-05 -0.000133577 -0.000133575 -2.05502e-05 -2.05495e-05 -5.21228e-05 -5.21216e-05 -2.05495e-05 -2.05488e-05 -5.21216e-05 -5.21206e-05 -5.21228e-05 -5.21216e-05 -0.000133575 -0.000133574 -5.21216e-05 -5.21206e-05 -0.000133574 -0.000133572 -0.000133581 -0.000133577 -0.000237143 -0.000237137 -0.000133577 -0.000133575 -0.000237137 -0.000237135 -0.000237143 -0.000237137 -0.000343705 -0.0003437 -0.000237137 -0.000237135 -0.0003437 -0.000343697 -0.000133575 -0.000133574 -0.000237135 -0.000237133 -0.000133574 -0.000133572 -0.000237133 -0.00023713 -0.000237135 -0.000237133 -0.000343697 -0.000343693 -0.000237133 -0.00023713 -0.000343693 -0.000343689 -0.000343727 -0.000343739 -0.000450648 -0.000450645 -0.000343739 -0.000343729 -0.000450645 -0.000450631 -0.000450648 -0.000450645 -0.000559893 -0.000559881 -0.000450645 -0.000450631 -0.000559881 -0.000559869 -0.000343729 -0.000343715 -0.000450631 -0.000450618 -0.000343715 -0.000343705 -0.000450618 -0.000450611 -0.000450631 -0.000450618 -0.000559869 -0.00055986 -0.000450618 -0.000450611 -0.00055986 -0.000559853 -0.000559893 -0.000559881 -0.000670189 -0.000670178 -0.000559881 -0.000559869 -0.000670178 -0.000670169 -0.000670189 -0.000670178 -0.000780136 -0.000780128 -0.000670178 -0.000670169 -0.000780128 -0.00078012 -0.000559869 -0.00055986 -0.000670169 -0.000670161 -0.00055986 -0.000559853 -0.000670161 -0.000670154 -0.000670169 -0.000670161 -0.00078012 -0.000780112 -0.000670161 -0.000670154 -0.000780112 -0.000780104 -0.000343705 -0.0003437 -0.000450611 -0.000450606 -0.0003437 -0.000343697 -0.000450606 -0.000450601 -0.000450611 -0.000450606 -0.000559853 -0.000559847 -0.000450606 -0.000450601 -0.000559847 -0.000559841 -0.000343697 -0.000343693 -0.000450601 -0.000450596 -0.000343693 -0.000343689 -0.000450596 -0.00045059 -0.000450601 -0.000450596 -0.000559841 -0.000559833 -0.000450596 -0.00045059 -0.000559833 -0.000559826 -0.000559853 -0.000559847 -0.000670154 -0.000670147 -0.000559847 -0.000559841 -0.000670147 -0.000670138 -0.000670154 -0.000670147 -0.000780104 -0.000780095 -0.000670147 -0.000670138 -0.000780095 -0.000780085 -0.000559841 -0.000559833 -0.000670138 -0.000670129 -0.000559833 -0.000559826 -0.000670129 -0.00067012 -0.000670138 -0.000670129 -0.000780085 -0.000780075 -0.000670129 -0.00067012 -0.000780075 -0.000780064 -0.000780127 -0.000780138 -0.000890044 -0.000890041 -0.000780138 -0.000780152 -0.000890041 -0.000890037 -0.000890044 -0.000890041 -0.00100002 -0.00100001 -0.000890041 -0.000890037 -0.00100001 -0.001 -0.000780152 -0.000780165 -0.000890037 -0.000890031 -0.000780165 -0.000780171 -0.000890031 -0.000890021 -0.000890037 -0.000890031 -0.001 -0.000999999 -0.000890031 -0.000890021 -0.000999999 -0.000999994 -0.00100002 -0.00100001 -0.00110999 -0.00110999 -0.00100001 -0.001 -0.00110999 -0.00110999 -0.00110999 -0.00110999 -0.00121997 -0.00121997 -0.00110999 -0.00110999 -0.00121997 -0.00121996 -0.001 -0.000999999 -0.00110999 -0.00110998 -0.000999999 -0.000999994 -0.00110998 -0.00110998 -0.00110999 -0.00110998 -0.00121996 -0.0012199