# vtk DataFile Version 3.0
#This file was generated by the deal.II library on 2022/11/16 at 21:25:44
ASCII
DATASET UNSTRUCTURED_GRID

POINTS 4096 double
0 0.5 0
0.03125 0.5 0
0 0.53125 0
0.03125 0.53125 0
0.03125 0.5 0
0.0625 0.5 0
0.03125 0.53125 0
0.0625 0.53125 0
0 0.53125 0
0.03125 0.53125 0
0 0.5625 0
0.03125 0.5625 0
0.03125 0.53125 0
0.0625 0.53125 0
0.03125 0.5625 0
0.0625 0.5625 0
0.0625 0.5 0
0.09375 0.5 0
0.0625 0.53125 0
0.09375 0.53125 0
0.09375 0.5 0
0.125 0.5 0
0.09375 0.53125 0
0.125 0.53125 0
0.0625 0.53125 0
0.09375 0.53125 0
0.0625 0.5625 0
0.09375 0.5625 0
0.09375 0.53125 0
0.125 0.53125 0
0.09375 0.5625 0
0.125 0.5625 0
0 0.5625 0
0.03125 0.5625 0
0 0.59375 0
0.03125 0.59375 0
0.03125 0.5625 0
0.0625 0.5625 0
0.03125 0.59375 0
0.0625 0.59375 0
0 0.59375 0
0.03125 0.59375 0
0 0.625 0
0.03125 0.625 0
0.03125 0.59375 0
0.0625 0.59375 0
0.03125 0.625 0
0.0625 0.625 0
0.0625 0.5625 0
0.09375 0.5625 0
0.0625 0.59375 0
0.09375 0.59375 0
0.09375 0.5625 0
0.125 0.5625 0
0.09375 0.59375 0
0.125 0.59375 0
0.0625 0.59375 0
0.09375 0.59375 0
0.0625 0.625 0
0.09375 0.625 0
0.09375 0.59375 0
0.125 0.59375 0
0.09375 0.625 0
0.125 0.625 0
0.125 0.5 0
0.15625 0.5 0
0.125 0.53125 0
0.15625 0.53125 0
0.15625 0.5 0
0.1875 0.5 0
0.15625 0.53125 0
0.1875 0.53125 0
0.125 0.53125 0
0.15625 0.53125 0
0.125 0.5625 0
0.15625 0.5625 0
0.15625 0.53125 0
0.1875 0.53125 0
0.15625 0.5625 0
0.1875 0.5625 0
0.1875 0.5 0
0.21875 0.5 0
0.1875 0.53125 0
0.21875 0.53125 0
0.21875 0.5 0
0.25 0.5 0
0.21875 0.53125 0
0.25 0.53125 0
0.1875 0.53125 0
0.21875 0.53125 0
0.1875 0.5625 0
0.21875 0.5625 0
0.21875 0.53125 0
0.25 0.53125 0
0.21875 0.5625 0
0.25 0.5625 0
0.125 0.5625 0
0.15625 0.5625 0
0.125 0.59375 0
0.15625 0.59375 0
0.15625 0.5625 0
0.1875 0.5625 0
0.15625 0.59375 0
0.1875 0.59375 0
0.125 0.59375 0
0.15625 0.59375 0
0.125 0.625 0
0.15625 0.625 0
0.15625 0.59375 0
0.1875 0.59375 0
0.15625 0.625 0
0.1875 0.625 0
0.1875 0.5625 0
0.21875 0.5625 0
0.1875 0.59375 0
0.21875 0.59375 0
0.21875 0.5625 0
0.25 0.5625 0
0.21875 0.59375 0
0.25 0.59375 0
0.1875 0.59375 0
0.21875 0.59375 0
0.1875 0.625 0
0.21875 0.625 0
0.21875 0.59375 0
0.25 0.59375 0
0.21875 0.625 0
0.25 0.625 0
0 0.625 0
0.03125 0.625 0
0 0.65625 0
0.03125 0.65625 0
0.03125 0.625 0
0.0625 0.625 0
0.03125 0.65625 0
0.0625 0.65625 0
0 0.65625 0
0.03125 0.65625 0
0 0.6875 0
0.03125 0.6875 0
0.03125 0.65625 0
0.0625 0.65625 0
0.03125 0.6875 0
0.0625 0.6875 0
0.0625 0.625 0
0.09375 0.625 0
0.0625 0.65625 0
0.09375 0.65625 0
0.09375 0.625 0
0.125 0.625 0
0.09375 0.65625 0
0.125 0.65625 0
0.0625 0.65625 0
0.09375 0.65625 0
0.0625 0.6875 0
0.09375 0.6875 0
0.09375 0.65625 0
0.125 0.65625 0
0.09375 0.6875 0
0.125 0.6875 0
0 0.6875 0
0.03125 0.6875 0
0 0.71875 0
0.03125 0.71875 0
0.03125 0.6875 0
0.0625 0.6875 0
0.03125 0.71875 0
0.0625 0.71875 0
0 0.71875 0
0.03125 0.71875 0
0 0.75 0
0.03125 0.75 0
0.03125 0.71875 0
0.0625 0.71875 0
0.03125 0.75 0
0.0625 0.75 0
0.0625 0.6875 0
0.09375 0.6875 0
0.0625 0.71875 0
0.09375 0.71875 0
0.09375 0.6875 0
0.125 0.6875 0
0.09375 0.71875 0
0.125 0.71875 0
0.0625 0.71875 0
0.09375 0.71875 0
0.0625 0.75 0
0.09375 0.75 0
0.09375 0.71875 0
0.125 0.71875 0
0.09375 0.75 0
0.125 0.75 0
0.125 0.625 0
0.15625 0.625 0
0.125 0.65625 0
0.15625 0.65625 0
0.15625 0.625 0
0.1875 0.625 0
0.15625 0.65625 0
0.1875 0.65625 0
0.125 0.65625 0
0.15625 0.65625 0
0.125 0.6875 0
0.15625 0.6875 0
0.15625 0.65625 0
0.1875 0.65625 0
0.15625 0.6875 0
0.1875 0.6875 0
0.1875 0.625 0
0.21875 0.625 0
0.1875 0.65625 0
0.21875 0.65625 0
0.21875 0.625 0
0.25 0.625 0
0.21875 0.65625 0
0.25 0.65625 0
0.1875 0.65625 0
0.21875 0.65625 0
0.1875 0.6875 0
0.21875 0.6875 0
0.21875 0.65625 0
0.25 0.65625 0
0.21875 0.6875 0
0.25 0.6875 0
0.125 0.6875 0
0.15625 0.6875 0
0.125 0.71875 0
0.15625 0.71875 0
0.15625 0.6875 0
0.1875 0.6875 0
0.15625 0.71875 0
0.1875 0.71875 0
0.125 0.71875 0
0.15625 0.71875 0
0.125 0.75 0
0.15625 0.75 0
0.15625 0.71875 0
0.1875 0.71875 0
0.15625 0.75 0
0.1875 0.75 0
0.1875 0.6875 0
0.21875 0.6875 0
0.1875 0.71875 0
0.21875 0.71875 0
0.21875 0.6875 0
0.25 0.6875 0
0.21875 0.71875 0
0.25 0.71875 0
0.1875 0.71875 0
0.21875 0.71875 0
0.1875 0.75 0
0.21875 0.75 0
0.21875 0.71875 0
0.25 0.71875 0
0.21875 0.75 0
0.25 0.75 0
0.25 0.5 0
0.28125 0.5 0
0.25 0.53125 0
0.28125 0.53125 0
0.28125 0.5 0
0.3125 0.5 0
0.28125 0.53125 0
0.3125 0.53125 0
0.25 0.53125 0
0.28125 0.53125 0
0.25 0.5625 0
0.28125 0.5625 0
0.28125 0.53125 0
0.3125 0.53125 0
0.28125 0.5625 0
0.3125 0.5625 0
0.3125 0.5 0
0.34375 0.5 0
0.3125 0.53125 0
0.34375 0.53125 0
0.34375 0.5 0
0.375 0.5 0
0.34375 0.53125 0
0.375 0.53125 0
0.3125 0.53125 0
0.34375 0.53125 0
0.3125 0.5625 0
0.34375 0.5625 0
0.34375 0.53125 0
0.375 0.53125 0
0.34375 0.5625 0
0.375 0.5625 0
0.25 0.5625 0
0.28125 0.5625 0
0.25 0.59375 0
0.28125 0.59375 0
0.28125 0.5625 0
0.3125 0.5625 0
0.28125 0.59375 0
0.3125 0.59375 0
0.25 0.59375 0
0.28125 0.59375 0
0.25 0.625 0
0.28125 0.625 0
0.28125 0.59375 0
0.3125 0.59375 0
0.28125 0.625 0
0.3125 0.625 0
0.3125 0.5625 0
0.34375 0.5625 0
0.3125 0.59375 0
0.34375 0.59375 0
0.34375 0.5625 0
0.375 0.5625 0
0.34375 0.59375 0
0.375 0.59375 0
0.3125 0.59375 0
0.34375 0.59375 0
0.3125 0.625 0
0.34375 0.625 0
0.34375 0.59375 0
0.375 0.59375 0
0.34375 0.625 0
0.375 0.625 0
0.375 0.5 0
0.40625 0.5 0
0.375 0.53125 0
0.40625 0.53125 0
0.40625 0.5 0
0.4375 0.5 0
0.40625 0.53125 0
0.4375 0.53125 0
0.375 0.53125 0
0.40625 0.53125 0
0.375 0.5625 0
0.40625 0.5625 0
0.40625 0.53125 0
0.4375 0.53125 0
0.40625 0.5625 0
0.4375 0.5625 0
0.4375 0.5 0
0.46875 0.5 0
0.4375 0.53125 0
0.46875 0.53125 0
0.46875 0.5 0
0.5 0.5 0
0.46875 0.53125 0
0.5 0.53125 0
0.4375 0.53125 0
0.46875 0.53125 0
0.4375 0.5625 0
0.46875 0.5625 0
0.46875 0.53125 0
0.5 0.53125 0
0.46875 0.5625 0
0.5 0.5625 0
0.375 0.5625 0
0.40625 0.5625 0
0.375 0.59375 0
0.40625 0.59375 0
0.40625 0.5625 0
0.4375 0.5625 0
0.40625 0.59375 0
0.4375 0.59375 0
0.375 0.59375 0
0.40625 0.59375 0
0.375 0.625 0
0.40625 0.625 0
0.40625 0.59375 0
0.4375 0.59375 0
0.40625 0.625 0
0.4375 0.625 0
0.4375 0.5625 0
0.46875 0.5625 0
0.4375 0.59375 0
0.46875 0.59375 0
0.46875 0.5625 0
0.5 0.5625 0
0.46875 0.59375 0
0.5 0.59375 0
0.4375 0.59375 0
0.46875 0.59375 0
0.4375 0.625 0
0.46875 0.625 0
0.46875 0.59375 0
0.5 0.59375 0
0.46875 0.625 0
0.5 0.625 0
0.25 0.625 0
0.28125 0.625 0
0.25 0.65625 0
0.28125 0.65625 0
0.28125 0.625 0
0.3125 0.625 0
0.28125 0.65625 0
0.3125 0.65625 0
0.25 0.65625 0
0.28125 0.65625 0
0.25 0.6875 0
0.28125 0.6875 0
0.28125 0.65625 0
0.3125 0.65625 0
0.28125 0.6875 0
0.3125 0.6875 0
0.3125 0.625 0
0.34375 0.625 0
0.3125 0.65625 0
0.34375 0.65625 0
0.34375 0.625 0
0.375 0.625 0
0.34375 0.65625 0
0.375 0.65625 0
0.3125 0.65625 0
0.34375 0.65625 0
0.3125 0.6875 0
0.34375 0.6875 0
0.34375 0.65625 0
0.375 0.65625 0
0.34375 0.6875 0
0.375 0.6875 0
0.25 0.6875 0
0.28125 0.6875 0
0.25 0.71875 0
0.28125 0.71875 0
0.28125 0.6875 0
0.3125 0.6875 0
0.28125 0.71875 0
0.3125 0.71875 0
0.25 0.71875 0
0.28125 0.71875 0
0.25 0.75 0
0.28125 0.75 0
0.28125 0.71875 0
0.3125 0.71875 0
0.28125 0.75 0
0.3125 0.75 0
0.3125 0.6875 0
0.34375 0.6875 0
0.3125 0.71875 0
0.34375 0.71875 0
0.34375 0.6875 0
0.375 0.6875 0
0.34375 0.71875 0
0.375 0.71875 0
0.3125 0.71875 0
0.34375 0.71875 0
0.3125 0.75 0
0.34375 0.75 0
0.34375 0.71875 0
0.375 0.71875 0
0.34375 0.75 0
0.375 0.75 0
0.375 0.625 0
0.40625 0.625 0
0.375 0.65625 0
0.40625 0.65625 0
0.40625 0.625 0
0.4375 0.625 0
0.40625 0.65625 0
0.4375 0.65625 0
0.375 0.65625 0
0.40625 0.65625 0
0.375 0.6875 0
0.40625 0.6875 0
0.40625 0.65625 0
0.4375 0.65625 0
0.40625 0.6875 0
0.4375 0.6875 0
0.4375 0.625 0
0.46875 0.625 0
0.4375 0.65625 0
0.46875 0.65625 0
0.46875 0.625 0
0.5 0.625 0
0.46875 0.65625 0
0.5 0.65625 0
0.4375 0.65625 0
0.46875 0.65625 0
0.4375 0.6875 0
0.46875 0.6875 0
0.46875 0.65625 0
0.5 0.65625 0
0.46875 0.6875 0
0.5 0.6875 0
0.375 0.6875 0
0.40625 0.6875 0
0.375 0.71875 0
0.40625 0.71875 0
0.40625 0.6875 0
0.4375 0.6875 0
0.40625 0.71875 0
0.4375 0.71875 0
0.375 0.71875 0
0.40625 0.71875 0
0.375 0.75 0
0.40625 0.75 0
0.40625 0.71875 0
0.4375 0.71875 0
0.40625 0.75 0
0.4375 0.75 0
0.4375 0.6875 0
0.46875 0.6875 0
0.4375 0.71875 0
0.46875 0.71875 0
0.46875 0.6875 0
0.5 0.6875 0
0.46875 0.71875 0
0.5 0.71875 0
0.4375 0.71875 0
0.46875 0.71875 0
0.4375 0.75 0
0.46875 0.75 0
0.46875 0.71875 0
0.5 0.71875 0
0.46875 0.75 0
0.5 0.75 0
0 0.75 0
0.03125 0.75 0
0 0.78125 0
0.03125 0.78125 0
0.03125 0.75 0
0.0625 0.75 0
0.03125 0.78125 0
0.0625 0.78125 0
0 0.78125 0
0.03125 0.78125 0
0 0.8125 0
0.03125 0.8125 0
0.03125 0.78125 0
0.0625 0.78125 0
0.03125 0.8125 0
0.0625 0.8125 0
0.0625 0.75 0
0.09375 0.75 0
0.0625 0.78125 0
0.09375 0.78125 0
0.09375 0.75 0
0.125 0.75 0
0.09375 0.78125 0
0.125 0.78125 0
0.0625 0.78125 0
0.09375 0.78125 0
0.0625 0.8125 0
0.09375 0.8125 0
0.09375 0.78125 0
0.125 0.78125 0
0.09375 0.8125 0
0.125 0.8125 0
0 0.8125 0
0.03125 0.8125 0
0 0.84375 0
0.03125 0.84375 0
0.03125 0.8125 0
0.0625 0.8125 0
0.03125 0.84375 0
0.0625 0.84375 0
0 0.84375 0
0.03125 0.84375 0
0 0.875 0
0.03125 0.875 0
0.03125 0.84375 0
0.0625 0.84375 0
0.03125 0.875 0
0.0625 0.875 0
0.0625 0.8125 0
0.09375 0.8125 0
0.0625 0.84375 0
0.09375 0.84375 0
0.09375 0.8125 0
0.125 0.8125 0
0.09375 0.84375 0
0.125 0.84375 0
0.0625 0.84375 0
0.09375 0.84375 0
0.0625 0.875 0
0.09375 0.875 0
0.09375 0.84375 0
0.125 0.84375 0
0.09375 0.875 0
0.125 0.875 0
0.125 0.75 0
0.15625 0.75 0
0.125 0.78125 0
0.15625 0.78125 0
0.15625 0.75 0
0.1875 0.75 0
0.15625 0.78125 0
0.1875 0.78125 0
0.125 0.78125 0
0.15625 0.78125 0
0.125 0.8125 0
0.15625 0.8125 0
0.15625 0.78125 0
0.1875 0.78125 0
0.15625 0.8125 0
0.1875 0.8125 0
0.1875 0.75 0
0.21875 0.75 0
0.1875 0.78125 0
0.21875 0.78125 0
0.21875 0.75 0
0.25 0.75 0
0.21875 0.78125 0
0.25 0.78125 0
0.1875 0.78125 0
0.21875 0.78125 0
0.1875 0.8125 0
0.21875 0.8125 0
0.21875 0.78125 0
0.25 0.78125 0
0.21875 0.8125 0
0.25 0.8125 0
0.125 0.8125 0
0.15625 0.8125 0
0.125 0.84375 0
0.15625 0.84375 0
0.15625 0.8125 0
[...]
POINT_DATA 4096
SCALARS x_dis double 1
LOOKUP_TABLE default
2.44352e-08 2.44894e-08 -1.80182e-06 -1.80173e-06 2.44894e-08 2.4646e-08 -1.80173e-06 -1.80148e-06 -1.80182e-06 -1.80173e-06 4.72288e-07 4.72428e-07 -1.80173e-06 -1.80148e-06 4.72428e-07 4.7283e-07 2.4646e-08 2.48886e-08 -1.80148e-06 -1.80109e-06 2.48886e-08 2.51931e-08 -1.80109e-06 -1.8006e-06 -1.80148e-06 -1.80109e-06 4.7283e-07 4.73442e-07 -1.80109e-06 -1.8006e-06 4.73442e-07 4.74199e-07 4.72288e-07 4.72428e-07 8.5543e-06 8.55452e-06 4.72428e-07 4.7283e-07 8.55452e-06 8.55513e-06 8.5543e-06 8.55452e-06 5.1352e-06 5.13553e-06 8.55452e-06 8.55513e-06 5.13553e-06 5.13646e-06 4.7283e-07 4.73442e-07 8.55513e-06 8.55607e-06 4.73442e-07 4.74199e-07 8.55607e-06 8.55721e-06 8.55513e-06 8.55607e-06 5.13646e-06 5.13783e-06 8.55607e-06 8.55721e-06 5.13783e-06 5.13947e-06 2.51931e-08 2.55317e-08 -1.8006e-06 -1.80006e-06 2.55317e-08 2.58766e-08 -1.80006e-06 -1.7995e-06 -1.8006e-06 -1.80006e-06 4.74199e-07 4.75031e-07 -1.80006e-06 -1.7995e-06 4.75031e-07 4.75872e-07 2.58766e-08 2.62019e-08 -1.7995e-06 -1.79898e-06 2.62019e-08 2.64869e-08 -1.79898e-06 -1.79853e-06 -1.7995e-06 -1.79898e-06 4.75872e-07 4.76658e-07 -1.79898e-06 -1.79853e-06 4.76658e-07 4.77358e-07 4.74199e-07 4.75031e-07 8.55721e-06 8.55844e-06 4.75031e-07 4.75872e-07 8.55844e-06 8.55967e-06 8.55721e-06 8.55844e-06 5.13947e-06 5.14123e-06 8.55844e-06 8.55967e-06 5.14123e-06 5.14297e-06 4.75872e-07 4.76658e-07 8.55967e-06 8.56082e-06 4.76658e-07 4.77358e-07 8.56082e-06 8.56183e-06 8.55967e-06 8.56082e-06 5.14297e-06 5.14459e-06 8.56082e-06 8.56183e-06 5.14459e-06 5.14601e-06 5.1352e-06 5.13553e-06 -3.08435e-05 -3.08429e-05 5.13553e-06 5.13646e-06 -3.08429e-05 -3.08415e-05 -3.08435e-05 -3.08429e-05 -0.000101977 -0.000101976 -3.08429e-05 -3.08415e-05 -0.000101976 -0.000101973 5.13646e-06 5.13783e-06 -3.08415e-05 -3.08396e-05 5.13783e-06 5.13947e-06 -3.08396e-05 -3.08373e-05 -3.08415e-05 -3.08396e-05 -0.000101973 -0.000101971 -3.08396e-05 -3.08373e-05 -0.000101971 -0.000101968 -0.000101977 -0.000101976 -0.000196452 -0.00019645 -0.000101976 -0.000101973 -0.00019645 -0.000196447 -0.000196452 -0.00019645 -0.000301658 -0.000301654 -0.00019645 -0.000196447 -0.000301654 -0.000301649 -0.000101973 -0.000101971 -0.000196447 -0.000196443 -0.000101971 -0.000101968 -0.000196443 -0.000196439 -0.000196447 -0.000196443 -0.000301649 -0.000301644 -0.000196443 -0.000196439 -0.000301644 -0.000301639 5.13947e-06 5.14123e-06 -3.08373e-05 -3.08349e-05 5.14123e-06 5.14297e-06 -3.08349e-05 -3.08325e-05 -3.08373e-05 -3.08349e-05 -0.000101968 -0.000101964 -3.08349e-05 -3.08325e-05 -0.000101964 -0.000101961 5.14297e-06 5.14459e-06 -3.08325e-05 -3.08303e-05 5.14459e-06 5.14601e-06 -3.08303e-05 -3.08284e-05 -3.08325e-05 -3.08303e-05 -0.000101961 -0.000101959 -3.08303e-05 -3.08284e-05 -0.000101959 -0.000101956 -0.000101968 -0.000101964 -0.000196439 -0.000196435 -0.000101964 -0.000101961 -0.000196435 -0.000196431 -0.000196439 -0.000196435 -0.000301639 -0.000301635 -0.000196435 -0.000196431 -0.000301635 -0.00030163 -0.000101961 -0.000101959 -0.000196431 -0.000196428 -0.000101959 -0.000101956 -0.000196428 -0.000196424 -0.000196431 -0.000196428 -0.00030163 -0.000301626 -0.000196428 -0.000196424 -0.000301626 -0.000301622 2.64869e-08 2.67224e-08 -1.79853e-06 -1.79812e-06 2.67224e-08 2.6918e-08 -1.79812e-06 -1.79763e-06 -1.79853e-06 -1.79812e-06 4.77358e-07 4.78001e-07 -1.79812e-06 -1.79763e-06 4.78001e-07 4.78687e-07 2.6918e-08 2.70766e-08 -1.79763e-06 -1.79716e-06 2.70766e-08 2.71485e-08 -1.79716e-06 -1.79796e-06 -1.79763e-06 -1.79716e-06 4.78687e-07 4.79316e-07 -1.79716e-06 -1.79796e-06 4.79316e-07 4.78863e-07 4.77358e-07 4.78001e-07 8.56183e-06 8.56275e-06 4.78001e-07 4.78687e-07 8.56275e-06 8.56363e-06 8.56183e-06 8.56275e-06 5.14601e-06 5.14724e-06 8.56275e-06 8.56363e-06 5.14724e-06 5.14834e-06 4.78687e-07 4.79316e-07 8.56363e-06 8.56436e-06 4.79316e-07 4.78863e-07 8.56436e-06 8.5644e-06 8.56363e-06 8.56436e-06 5.14834e-06 5.14932e-06 8.56436e-06 8.5644e-06 5.14932e-06 5.14988e-06 2.71485e-08 2.71423e-08 -1.79796e-06 -1.80123e-06 2.71423e-08 2.73269e-08 -1.80123e-06 -1.80054e-06 -1.79796e-06 -1.80123e-06 4.78863e-07 4.76473e-07 -1.80123e-06 -1.80054e-06 4.76473e-07 4.75056e-07 2.73269e-08 2.73759e-08 -1.80054e-06 -1.7763e-06 2.73759e-08 2.66221e-08 -1.7763e-06 -1.70538e-06 -1.80054e-06 -1.7763e-06 4.75056e-07 4.75931e-07 -1.7763e-06 -1.70538e-06 4.75931e-07 4.71268e-07 4.78863e-07 4.76473e-07 8.5644e-06 8.56371e-06 4.76473e-07 4.75056e-07 8.56371e-06 8.56374e-06 8.5644e-06 8.56371e-06 5.14988e-06 5.14954e-06 8.56371e-06 8.56374e-06 5.14954e-06 5.14899e-06 4.75056e-07 4.75931e-07 8.56374e-06 8.56281e-06 4.75931e-07 4.71268e-07 8.56281e-06 8.55119e-06 8.56374e-06 8.56281e-06 5.14899e-06 5.15049e-06 8.56281e-06 8.55119e-06 5.15049e-06 5.15674e-06 5.14601e-06 5.14724e-06 -3.08284e-05 -3.08268e-05 5.14724e-06 5.14834e-06 -3.08268e-05 -3.08254e-05 -3.08284e-05 -3.08268e-05 -0.000101956 -0.000101954 -3.08268e-05 -3.08254e-05 -0.000101954 -0.000101952 5.14834e-06 5.14932e-06 -3.08254e-05 -3.08243e-05 5.14932e-06 5.14988e-06 -3.08243e-05 -3.08232e-05 -3.08254e-05 -3.08243e-05 -0.000101952 -0.000101951 -3.08243e-05 -3.08232e-05 -0.000101951 -0.00010195 -0.000101956 -0.000101954 -0.000196424 -0.000196422 -0.000101954 -0.000101952 -0.000196422 -0.00019642 -0.000196424 -0.000196422 -0.000301622 -0.000301619 -0.000196422 -0.00019642 -0.000301619 -0.000301617 -0.000101952 -0.000101951 -0.00019642 -0.000196418 -0.000101951 -0.00010195 -0.000196418 -0.000196417 -0.00019642 -0.000196418 -0.000301617 -0.000301615 -0.000196418 -0.000196417 -0.000301615 -0.000301613 5.14988e-06 5.14954e-06 -3.08232e-05 -3.08226e-05 5.14954e-06 5.14899e-06 -3.08226e-05 -3.0823e-05 -3.08232e-05 -3.08226e-05 -0.00010195 -0.000101949 -3.08226e-05 -3.0823e-05 -0.000101949 -0.000101948 5.14899e-06 5.15049e-06 -3.0823e-05 -3.08236e-05 5.15049e-06 5.15674e-06 -3.08236e-05 -3.08229e-05 -3.0823e-05 -3.08236e-05 -0.000101948 -0.000101948 -3.08236e-05 -3.08229e-05 -0.000101948 -0.000101948 -0.00010195 -0.000101949 -0.000196417 -0.000196416 -0.000101949 -0.000101948 -0.000196416 -0.000196415 -0.000196417 -0.000196416 -0.000301613 -0.000301612 -0.000196416 -0.000196415 -0.000301612 -0.000301611 -0.000101948 -0.000101948 -0.000196415 -0.000196414 -0.000101948 -0.000101948 -0.000196414 -0.000196414 -0.000196415 -0.000196414 -0.000301611 -0.000301611 -0.000196414 -0.000196414 -0.000301611 -0.00030161 -0.000301658 -0.000301654 -0.000410474 -0.000410468 -0.000301654 -0.000301649 -0.000410468 -0.000410461 -0.000410474 -0.000410468 -0.000520225 -0.000520217 -0.000410468 -0.000410461 -0.000520217 -0.000520209 -0.000301649 -0.000301644 -0.000410461 -0.000410455 -0.000301644 -0.000301639 -0.000410455 -0.000410449 -0.000410461 -0.000410455 -0.000520209 -0.000520201 -0.000410455 -0.000410449 -0.000520201 -0.000520194 -0.000520225 -0.000520217 -0.000630149 -0.000630139 -0.000520217 -0.000520209 -0.000630139 -0.000630129 -0.000630149 -0.000630139 -0.000740118 -0.000740105 -0.000630139 -0.000630129 -0.000740105 -0.000740093 -0.000520209 -0.000520201 -0.000630129 -0.00063012 -0.000520201 -0.000520194 -0.00063012 -0.000630112 -0.000630129 -0.00063012 -0.000740093 -0.000740083 -0.00063012 -0.000630112 -0.000740083 -0.000740075 -0.000301639 -0.000301635 -0.000410449 -0.000410443 -0.000301635 -0.00030163 -0.000410443 -0.000410438 -0.000410449 -0.000410443 -0.000520194 -0.000520188 -0.000410443 -0.000410438 -0.000520188 -0.000520182 -0.00030163 -0.000301626 -0.000410438 -0.000410433 -0.000301626 -0.000301622 -0.000410433 -0.000410429 -0.000410438 -0.000410433 -0.000520182 -0.000520177 -0.000410433 -0.000410429 -0.000520177 -0.000520173 -0.000520194 -0.000520188 -0.000630112 -0.000630106 -0.000520188 -0.000520182 -0.000630106 -0.0006301 -0.000630112 -0.000630106 -0.000740075 -0.000740068 -0.000630106 -0.0006301 -0.000740068 -0.000740063 -0.000520182 -0.000520177 -0.0006301 -0.000630095 -0.000520177 -0.000520173 -0.000630095 -0.000630091 -0.0006301 -0.000630095 -0.000740063 -0.000740058 -0.000630095 -0.000630091 -0.000740058 -0.000740054 -0.000740118 -0.000740105 -0.000850087 -0.000850071 -0.000740105 -0.000740093 -0.000850071 -0.000850058 -0.000850087 -0.000850071 -0.000960067 -0.00096005 -0.000850071 -0.000850058 -0.00096005 -0.000960036 -0.000740093 -0.000740083 -0.000850058 -0.000850048 -0.000740083 -0.000740075 -0.000850048 -0.00085004 -0.000850058 -0.000850048 -0.000960036 -0.000960027 -0.000850048 -0.00085004 -0.000960027 -0.00096002 -0.000960067 -0.00096005 -0.00107005 -0.00107002 -0.00096005 -0.000960036 -0.00107002 -0.00107001 -0.00107005 -0.00107002 -0.00118 -0.00118 -0.00107002 -0.00107001 -0.00118 -0.00118 -0.000960036 -0.000960027 -0.00107001 -0.00107001 -0.000960027 -0.00096002 -0.00107001 -0.00107001 -0.00107001 -0.00107001 -0.00118 -0.00118 -0.00107001 -0.00107001 -0.00118 -0.00118 -0.000740075 -0.000740068 -0.00085004 -0.000850034 -0.000740068 -0.000740063 -0.000850034 -0.000850029 -0.00085004 -0.000850034 -0.00096002 -0.000960015 -0.000850034 -0.000850029 -0.000960015 -0.000960012 -0.000740063 -0.000740058 -0.000850029 -0.000850025 -0.000740058 -0.000740054 -0.000850025 -0.000850022 -0.000850029 -0.000850025 -0.000960012 -0.000960009 -0.000850025 -0.000850022 -0.000960009 -0.000960007 -0.00096002 -0.000960015 -0.00107001 -0.00107 -0.000960015 -0.000960012 -0.00107 -0.00107 -0.00107001 -0.00107 -0.00118 -0.00118 -0.00107 -0.00107 -0.00118 -0.00118 -0.000960012 -0.000960009 -0.00107 -0.00107 -0.000960009 -0.000960007 -0.00107 -0.00107 -0.00107 -0.00107 -0.00118 -0.00118 -0.00107 -0.00107 -0.00118 -0.00118 -0.000301622 -0.000301619 -0.000410429 -0.000410426 -0.000301619 -0.000301617 -0.000410426 -0.000410423 -0.000410429 -0.000410426 -0.000520173 -0.00052017 -0.000410426 -0.000410423 -0.00052017 -0.000520167 -0.000301617 -0.000301615 -0.000410423 -0.000410421 -0.000301615 -0.000301613 -0.000410421 -0.000410419 -0.000410423 -0.000410421 -0.000520167 -0.000520164 -0.000410421 -0.000410419 -0.000520164 -0.000520163 -0.000520173 -0.00052017 -0.000630091 -0.000630087 -0.00052017 -0.000520167 -0.000630087 -0.000630084 -0.000630091 -0.000630087 -0.000740054 -0.000740051 -0.000630087 -0.000630084 -0.000740051 -0.000740049 -0.000520167 -0.000520164 -0.000630084 -0.000630082 -0.000520164 -0.000520163 -0.000630082 -0.00063008 -0.000630084 -0.000630082 -0.000740049 -0.000740047 -0.000630082 -0.00063008 -0.000740047 -0.000740045 -0.000301613 -0.000301612 -0.000410419 -0.000410418 -0.000301612 -0.000301611 -0.000410418 -0.000410417 -0.000410419 -0.000410418 -0.000520163 -0.000520161 -0.000410418 -0.000410417 -0.000520161 -0.00052016 -0.000301611 -0.000301611 -0.000410417 -0.000410416 -0.000301611 -0.00030161 -0.000410416 -0.000410416 -0.000410417 -0.000410416 -0.00052016 -0.000520159 -0.000410416 -0.000410416 -0.000520159 -0.000520159 -0.000520163 -0.000520161 -0.00063008 -0.000630079 -0.000520161 -0.00052016 -0.000630079 -0.000630078 -0.00063008 -0.000630079 -0.000740045 -0.000740043 -0.000630079 -0.000630078 -0.000740043 -0.000740042 -0.00052016 -0.000520159 -0.000630078 -0.000630077 -0.000520159 -0.000520159 -0.000630077 -0.000630076 -0.000630078 -0.000630077 -0.000740042 -0.000740041 -0.000630077 -0.000630076 -0.000740041 -0.000740041 -0.000740054 -0.000740051 -0.000850022 -0.00085002 -0.000740051 -0.000740049 -0.00085002 -0.000850018 -0.000850022 -0.00085002 -0.000960007 -0.000960005 -0.00085002 -0.000850018 -0.000960005 -0.000960004 -0.000740049 -0.000740047 -0.000850018 -0.000850016 -0.000740047 -0.000740045 -0.000850016 -0.000850015 -0.000850018 -0.000850016 -0.000960004 -0.000960003 -0.000850016 -0.000850015 -0.000960003 -0.000960002 -0.000960007 -0.000960005 -0.00107 -0.00107 -0.000960005 -0.000960004 -0.00107 -0.00107 -0.00107 -0.00107 -0.00118 -0.00118 -0.00107 -0.00107 -0.00118 -0.00118 -0.000960004 -0.000960003 -0.00107 -0.00107 -0.000960003 -0.000960002 -0.00107 -0.00107 -0.00107 -0.00107 -0.00118 -0.00118 -0.00107 -0.00107 -0.00118 -0.00118 -0.000740045 -0.000740043 -0.000850015 -0.000850013 -0.000740043 -0.000740042 -0.000850013 -0.000850012 -0.000850015 -0.000850013 -0.000960002 -0.000960001 -0.000850013 -0.000850012 -0.000960001 -0.00096 -0.000740042 -0.000740041 -0.000850012 -0.000850012 -0.000740041 -0.000740041 -0.000850012 -0.000850011 -0.000850012 -0.000850012 -0.00096 -0.000959999 -0.000850012 -0.000850011 -0.000959999 -0.000959999 -0.000960002 -0.000960001 -0.00107 -0.00107 -0.000960001 -0.00096 -0.00107 -0.00106999 -0.00107 -0.00107 -0.00118 -0.00118 -0.00107 -0.00106999 -0.00118 -0.00118 -0.00096 -0.000959999 -0.00106999 -0.00106999 -0.000959999 -0.000959999 -0.00106999 -0.00106999 -0.00106999 -0.00106999 -0.00118 -0.00118 -0.00106999 -0.00106999 -0.00118 -0.00118 2.66221e-08 -1.80979e-07 -1.70538e-06 -1.55294e-06 -1.80979e-07 -2.79928e-08 -1.55294e-06 -1.47819e-06 -1.70538e-06 -1.55294e-06 4.71268e-07 4.39285e-07 -1.55294e-06 -1.47819e-06 4.39285e-07 4.15829e-07 -2.79928e-08 6.52001e-08 -1.47819e-06 -1.43923e-06 6.52001e-08 7.29886e-08 -1.43923e-06 -1.44121e-06 -1.47819e-06 -1.43923e-06 4.15829e-07 4.05519e-07 -1.43923e-06 -1.44121e-06 4.05519e-07 4.02784e-07 4.71268e-07 4.39285e-07 8.55119e-06 8.5344e-06 4.39285e-07 4.15829e-07 8.5344e-06 8.52619e-06 8.55119e-06 8.5344e-06 5.15674e-06 5.16675e-06 8.5344e-06 8.52619e-06 5.16675e-06 5.17615e-06 4.15829e-07 4.05519e-07 8.52619e-06 8.52962e-06 4.05519e-07 4.02784e-07 8.52962e-06 8.53156e-06 8.52619e-06 8.52962e-06 5.17615e-06 5.17948e-06 8.52962e-06 8.53156e-06 5.17948e-06 5.17811e-06 7.29886e-08 5.97458e-08 -1.44121e-06 -1.45467e-06 5.97458e-08 5.27217e-08 -1.45467e-06 -1.45878e-06 -1.44121e-06 -1.45467e-06 4.02784e-07 3.99146e-07 -1.45467e-06 -1.45878e-06 3.99146e-07 3.98001e-07 5.27217e-08 5.36193e-08 -1.45878e-06 -1.45672e-06 5.36193e-08 5.61285e-08 -1.45672e-06 -1.45499e-06 -1.45878e-06 -1.45672e-06 3.98001e-07 3.99134e-07 -1.45672e-06 -1.45499e-06 3.99134e-07 4.00301e-07 4.02784e-07 3.99146e-07 8.53156e-06 8.53037e-06 3.99146e-07 3.98001e-07 8.53037e-06 8.5298e-06 8.53156e-06 8.53037e-06 5.17811e-06 5.17678e-06 8.53037e-06 8.5298e-06 5.17678e-06 5.17751e-06 3.98001e-07 3.99134e-07 8.5298e-06 8.53079e-06 3.99134e-07 4.00301e-07 8.53079e-06 8.53213e-06 8.5298e-06 8.53079e-06 5.17751e-06 5.17908e-06 8.53079e-06 8.53213e-06 5.17908e-06 5.18057e-06 5.15674e-06 5.16675e-06 -3.08229e-05 -3.08214e-05 5.16675e-06 5.17615e-06 -3.08214e-05 -3.08216e-05 -3.08229e-05 -3.08214e-05 -0.000101948 -0.00010195 -3.08214e-05 -3.08216e-05 -0.00010195 -0.000101951 5.17615e-06 5.17948e-06 -3.08216e-05 -3.08234e-05 5.17948e-06 5.17811e-06 -3.08234e-05 -3.08244e-05 -3.08216e-05 -3.08234e-05 -0.000101951 -0.00010195 -3.08234e-05 -3.08244e-05 -0.00010195 -0.000101949 -0.000101948 -0.00010195 -0.000196414 -0.000196413 -0.00010195 -0.000101951 -0.000196413 -0.000196412 -0.000196414 -0.000196413 -0.00030161 -0.00030161 -0.000196413 -0.000196412 -0.00030161 -0.000301609 -0.000101951 -0.00010195 -0.000196412 -0.000196411 -0.00010195 -0.000101949 -0.000196411 -0.00019641 -0.000196412 -0.000196411 -0.000301609 -0.000301608 -0.000196411 -0.00019641 -0.000301608 -0.000301607 5.17811e-06 5.17678e-06 -3.08244e-05 -3.08235e-05 5.17678e-06 5.17751e-06 -3.08235e-05 -3.08217e-05 -3.08244e-05 -3.08235e-05 -0.000101949 -0.000101947 -3.08235e-05 -3.08217e-05 -0.000101947 -0.000101946 5.17751e-06 5.17908e-06 -3.08217e-05 -3.08201e-05 5.17908e-06 5.18057e-06 -3.08201e-05 -3.08185e-05 -3.08217e-05 -3.08201e-05 -0.000101946 -0.000101944 -3.08201e-05 -3.08185e-05 -0.000101944 -0.000101942 -0.000101949 -0.000101947 -0.00019641 -0.000196409 -0.000101947 -0.000101946 -0.000196409 -0.000196407 -0.00019641 -0.000196409 -0.000301607 -0.000301606 -0.000196409 -0.000196407 -0.000301606 -0.000301604 -0.000101946 -0.000101944 -0.000196407 -0.000196405 -0.000101944 -0.000101942 -0.000196405 -0.000196402 -0.000196407 -0.000196405 -0.000301604 -0.000301601 -0.000196405 -0.000196402 -0.000301601 -0.000301598 5.61285e-08 5.7076e-08 -1.45499e-06 -1.45452e-06 5.7076e-08 5.7406e-08 -1.45452e-06 -1.45422e-06 -1.45499e-06 -1.45452e-06 4.00301e-07 4.01031e-07 -1.45452e-06 -1.45422e-06 4.01031e-07 4.01659e-07 5.7406e-08 5.80274e-08 -1.45422e-06 -1.45369e-06 5.80274e-08 5.88096e-08 -1.45369e-06 -1.45307e-06 -1.45422e-06 -1.45369e-06 4.01659e-07 4.02371e-07 -1.45369e-06 -1.45307e-06 4.02371e-07 4.03137e-07 4.00301e-07 4.01031e-07 8.53213e-06 8.53323e-06 4.01031e-07 4.01659e-07 8.53323e-06 8.53424e-06 8.53213e-06 8.53323e-06 5.18057e-06 5.18195e-06 8.53323e-06 8.53424e-06 5.18195e-06 5.18348e-06 4.01659e-07 4.02371e-07 8.53424e-06 8.53536e-06 4.02371e-07 4.03137e-07 8.53536e-06 8.53655e-06 8.53424e-06 8.53536e-06 5.18348e-06 5.18519e-06 8.53536e-06 8.53655e-06 5.18519e-06 5.18695e-06 5.88096e-08 5.94989e-08 -1.45307e-06 -1.45252e-06 5.94989e-08 6.00224e-08 -1.45252e-06 -1.4521e-06 -1.45307e-06 -1.45252e-06 4.03137e-07 4.03842e-07 -1.45252e-06 -1.4521e-06 4.03842e-07 4.04404e-07 6.00224e-08 6.03593e-08 -1.4521e-06 -1.45183e-06 6.03593e-08 6.04774e-08 -1.45183e-06 -1.45173e-06 -1.4521e-06 -1.45183e-06 4.04404e-07 4.04769e-07 -1.45183e-06 -1.45173e-06 4.04769e-07 4.04897e-07 4.03137e-07 4.03842e-07 8.53655e-06 8.53765e-06 4.03842e-07 4.04404e-07 8.53765e-06 8.53853e-06 8.53655e-06 8.53765e-06 5.18695e-06 5.18857e-06 8.53765e-06 8.53853e-06 5.18857e-06 5.18992e-06 4.04404e-07 4.04769e-07 8.53853e-06 8.53912e-06 4.04769e-07 4.04897e-07 8.53912e-06 8.53933e-06 8.53853e-06 8.53912e-06 5.18992e-06 5.19084e-06 8.53912e-06 8.53933e-06 5.19084e-06 5.19117e-06 5.18057e-06 5.18195e-06 -3.08185e-05 -3.08167e-05 5.18195e-06 5.18348e-06 -3.08167e-05 -3.08145e-05 -3.08185e-05 -3.08167e-05 -0.000101942 -0.00010194 -3.08167e-05 -3.08145e-05 -0.00010194 -0.000101937 5.18348e-06 5.18519e-06 -3.08145e-05 -3.08121e-05 5.18519e-06 5.18695e-06 -3.08121e-05 -3.08097e-05 -3.08145e-05 -3.08121e-05 -0.000101937 -0.000101934 -3.08121e-05 -3.08097e-05 -0.000101934 -0.000101931 -0.000101942 -0.00010194 -0.000196402 -0.000196399 -0.00010194 -0.000101937 -0.000196399 -0.000196396 -0.000196402 -0.000196399 -0.000301598 -0.000301595 -0.000196399 -0.000196396 -0.000301595 -0.00030159 -0.000101937 -0.000101934 -0.000196396 -0.000196392 -0.000101934 -0.000101931 -0.000196392 -0.000196388 -0.000196396 -0.000196392 -0.00030159 -0.000301586 -0.000196392 -0.000196388 -0.000301586 -0.000301581 5.18695e-06 5.18857e-06 -3.08097e-05 -3.08074e-05 5.18857e-06 5.18992e-06 -3.08074e-05 -3.08055e-05 -3.08097e-05 -3.08074e-05 -0.000101931 -0.000101928 -3.08074e-05 -3.08055e-05 -0.000101928 -0.000101925 5.18992e-06 5.19084e-06 -3.08055e-05 -3.08041e-05 5.19084e-06 5.19117e-06 -3.08041e-05 -3.08035e-05 -3.08055e-05 -3.08041e-05 -0.000101925 -0.000101923 -3.08041e-05 -3.08035e-05 -0.000101923 -0.000101921 -0.000101931 -0.000101928 -0.000196388 -0.000196384 -0.000101928 -0.000101925 -0.000196384 -0.00019638 -0.000196388 -0.000196384 -0.000301581 -0.000301576 -0.000196384 -0.00019638 -0.000301576 -0.000301571 -0.000101925 -0.000101923 -0.00019638 -0.000196377 -0.000101923 -0.000101921 -0.000196377 -0.000196374 -0.00019638 -0.000196377 -0.000301571 -0.000301566 -0.000196377 -0.000196374 -0.000301566 -0.000301562 -0.00030161 -0.00030161 -0.000410416 -0.000410415 -0.00030161 -0.000301609 -0.000410415 -0.000410414 -0.000410416 -0.000410415 -0.000520159 -0.000520158 -0.000410415 -0.000410414 -0.000520158 -0.000520157 -0.000301609 -0.000301608 -0.000410414 -0.000410414 -0.000301608 -0.000301607 -0.000410414 -0.000410412 -0.000410414 -0.000410414 -0.000520157 -0.000520156 -0.000410414 -0.000410412 -0.000520156 -0.000520154 -0.000520159 -0.000520158 -0.000630076 -0.000630075 -0.000520158 -0.000520157 -0.000630075 -0.000630074 -0.000630076 -0.000630075 -0.000740041 -0.00074004 -0.000630075 -0.000630074 -0.00074004 -0.000740039 -0.000520157 -0.000520156 -0.000630074 -0.000630073 -0.000520156 -0.000520154 -0.000630073 -0.000630072 -0.000630074 -0.000630073 -0.000740039 -0.000740038 -0.000630073 -0.000630072 -0.000740038 -0.000740037 -0.000301607 -0.000301606 -0.0004104