# vtk DataFile Version 3.0
#This file was generated by the deal.II library on 2022/11/16 at 21:22:37
ASCII
DATASET UNSTRUCTURED_GRID

POINTS 4096 double
0 0.5 0
0.03125 0.5 0
0 0.53125 0
0.03125 0.53125 0
0.03125 0.5 0
0.0625 0.5 0
0.03125 0.53125 0
0.0625 0.53125 0
0 0.53125 0
0.03125 0.53125 0
0 0.5625 0
0.03125 0.5625 0
0.03125 0.53125 0
0.0625 0.53125 0
0.03125 0.5625 0
0.0625 0.5625 0
0.0625 0.5 0
0.09375 0.5 0
0.0625 0.53125 0
0.09375 0.53125 0
0.09375 0.5 0
0.125 0.5 0
0.09375 0.53125 0
0.125 0.53125 0
0.0625 0.53125 0
0.09375 0.53125 0
0.0625 0.5625 0
0.09375 0.5625 0
0.09375 0.53125 0
0.125 0.53125 0
0.09375 0.5625 0
0.125 0.5625 0
0 0.5625 0
0.03125 0.5625 0
0 0.59375 0
0.03125 0.59375 0
0.03125 0.5625 0
0.0625 0.5625 0
0.03125 0.59375 0
0.0625 0.59375 0
0 0.59375 0
0.03125 0.59375 0
0 0.625 0
0.03125 0.625 0
0.03125 0.59375 0
0.0625 0.59375 0
0.03125 0.625 0
0.0625 0.625 0
0.0625 0.5625 0
0.09375 0.5625 0
0.0625 0.59375 0
0.09375 0.59375 0
0.09375 0.5625 0
0.125 0.5625 0
0.09375 0.59375 0
0.125 0.59375 0
0.0625 0.59375 0
0.09375 0.59375 0
0.0625 0.625 0
0.09375 0.625 0
0.09375 0.59375 0
0.125 0.59375 0
0.09375 0.625 0
0.125 0.625 0
0.125 0.5 0
0.15625 0.5 0
0.125 0.53125 0
0.15625 0.53125 0
0.15625 0.5 0
0.1875 0.5 0
0.15625 0.53125 0
0.1875 0.53125 0
0.125 0.53125 0
0.15625 0.53125 0
0.125 0.5625 0
0.15625 0.5625 0
0.15625 0.53125 0
0.1875 0.53125 0
0.15625 0.5625 0
0.1875 0.5625 0
0.1875 0.5 0
0.21875 0.5 0
0.1875 0.53125 0
0.21875 0.53125 0
0.21875 0.5 0
0.25 0.5 0
0.21875 0.53125 0
0.25 0.53125 0
0.1875 0.53125 0
0.21875 0.53125 0
0.1875 0.5625 0
0.21875 0.5625 0
0.21875 0.53125 0
0.25 0.53125 0
0.21875 0.5625 0
0.25 0.5625 0
0.125 0.5625 0
0.15625 0.5625 0
0.125 0.59375 0
0.15625 0.59375 0
0.15625 0.5625 0
0.1875 0.5625 0
0.15625 0.59375 0
0.1875 0.59375 0
0.125 0.59375 0
0.15625 0.59375 0
0.125 0.625 0
0.15625 0.625 0
0.15625 0.59375 0
0.1875 0.59375 0
0.15625 0.625 0
0.1875 0.625 0
0.1875 0.5625 0
0.21875 0.5625 0
0.1875 0.59375 0
0.21875 0.59375 0
0.21875 0.5625 0
0.25 0.5625 0
0.21875 0.59375 0
0.25 0.59375 0
0.1875 0.59375 0
0.21875 0.59375 0
0.1875 0.625 0
0.21875 0.625 0
0.21875 0.59375 0
0.25 0.59375 0
0.21875 0.625 0
0.25 0.625 0
0 0.625 0
0.03125 0.625 0
0 0.65625 0
0.03125 0.65625 0
0.03125 0.625 0
0.0625 0.625 0
0.03125 0.65625 0
0.0625 0.65625 0
0 0.65625 0
0.03125 0.65625 0
0 0.6875 0
0.03125 0.6875 0
0.03125 0.65625 0
0.0625 0.65625 0
0.03125 0.6875 0
0.0625 0.6875 0
0.0625 0.625 0
0.09375 0.625 0
0.0625 0.65625 0
0.09375 0.65625 0
0.09375 0.625 0
0.125 0.625 0
0.09375 0.65625 0
0.125 0.65625 0
0.0625 0.65625 0
0.09375 0.65625 0
0.0625 0.6875 0
0.09375 0.6875 0
0.09375 0.65625 0
0.125 0.65625 0
0.09375 0.6875 0
0.125 0.6875 0
0 0.6875 0
0.03125 0.6875 0
0 0.71875 0
0.03125 0.71875 0
0.03125 0.6875 0
0.0625 0.6875 0
0.03125 0.71875 0
0.0625 0.71875 0
0 0.71875 0
0.03125 0.71875 0
0 0.75 0
0.03125 0.75 0
0.03125 0.71875 0
0.0625 0.71875 0
0.03125 0.75 0
0.0625 0.75 0
0.0625 0.6875 0
0.09375 0.6875 0
0.0625 0.71875 0
0.09375 0.71875 0
0.09375 0.6875 0
0.125 0.6875 0
0.09375 0.71875 0
0.125 0.71875 0
0.0625 0.71875 0
0.09375 0.71875 0
0.0625 0.75 0
0.09375 0.75 0
0.09375 0.71875 0
0.125 0.71875 0
0.09375 0.75 0
0.125 0.75 0
0.125 0.625 0
0.15625 0.625 0
0.125 0.65625 0
0.15625 0.65625 0
0.15625 0.625 0
0.1875 0.625 0
0.15625 0.65625 0
0.1875 0.65625 0
0.125 0.65625 0
0.15625 0.65625 0
0.125 0.6875 0
0.15625 0.6875 0
0.15625 0.65625 0
0.1875 0.65625 0
0.15625 0.6875 0
0.1875 0.6875 0
0.1875 0.625 0
0.21875 0.625 0
0.1875 0.65625 0
0.21875 0.65625 0
0.21875 0.625 0
0.25 0.625 0
0.21875 0.65625 0
0.25 0.65625 0
0.1875 0.65625 0
0.21875 0.65625 0
0.1875 0.6875 0
0.21875 0.6875 0
0.21875 0.65625 0
0.25 0.65625 0
0.21875 0.6875 0
0.25 0.6875 0
0.125 0.6875 0
0.15625 0.6875 0
0.125 0.71875 0
0.15625 0.71875 0
0.15625 0.6875 0
0.1875 0.6875 0
0.15625 0.71875 0
0.1875 0.71875 0
0.125 0.71875 0
0.15625 0.71875 0
0.125 0.75 0
0.15625 0.75 0
0.15625 0.71875 0
0.1875 0.71875 0
0.15625 0.75 0
0.1875 0.75 0
0.1875 0.6875 0
0.21875 0.6875 0
0.1875 0.71875 0
0.21875 0.71875 0
0.21875 0.6875 0
0.25 0.6875 0
0.21875 0.71875 0
0.25 0.71875 0
0.1875 0.71875 0
0.21875 0.71875 0
0.1875 0.75 0
0.21875 0.75 0
0.21875 0.71875 0
0.25 0.71875 0
0.21875 0.75 0
0.25 0.75 0
0.25 0.5 0
0.28125 0.5 0
0.25 0.53125 0
0.28125 0.53125 0
0.28125 0.5 0
0.3125 0.5 0
0.28125 0.53125 0
0.3125 0.53125 0
0.25 0.53125 0
0.28125 0.53125 0
0.25 0.5625 0
0.28125 0.5625 0
0.28125 0.53125 0
0.3125 0.53125 0
0.28125 0.5625 0
0.3125 0.5625 0
0.3125 0.5 0
0.34375 0.5 0
0.3125 0.53125 0
0.34375 0.53125 0
0.34375 0.5 0
0.375 0.5 0
0.34375 0.53125 0
0.375 0.53125 0
0.3125 0.53125 0
0.34375 0.53125 0
0.3125 0.5625 0
0.34375 0.5625 0
0.34375 0.53125 0
0.375 0.53125 0
0.34375 0.5625 0
0.375 0.5625 0
0.25 0.5625 0
0.28125 0.5625 0
0.25 0.59375 0
0.28125 0.59375 0
0.28125 0.5625 0
0.3125 0.5625 0
0.28125 0.59375 0
0.3125 0.59375 0
0.25 0.59375 0
0.28125 0.59375 0
0.25 0.625 0
0.28125 0.625 0
0.28125 0.59375 0
0.3125 0.59375 0
0.28125 0.625 0
0.3125 0.625 0
0.3125 0.5625 0
0.34375 0.5625 0
0.3125 0.59375 0
0.34375 0.59375 0
0.34375 0.5625 0
0.375 0.5625 0
0.34375 0.59375 0
0.375 0.59375 0
0.3125 0.59375 0
0.34375 0.59375 0
0.3125 0.625 0
0.34375 0.625 0
0.34375 0.59375 0
0.375 0.59375 0
0.34375 0.625 0
0.375 0.625 0
0.375 0.5 0
0.40625 0.5 0
0.375 0.53125 0
0.40625 0.53125 0
0.40625 0.5 0
0.4375 0.5 0
0.40625 0.53125 0
0.4375 0.53125 0
0.375 0.53125 0
0.40625 0.53125 0
0.375 0.5625 0
0.40625 0.5625 0
0.40625 0.53125 0
0.4375 0.53125 0
0.40625 0.5625 0
0.4375 0.5625 0
0.4375 0.5 0
0.46875 0.5 0
0.4375 0.53125 0
0.46875 0.53125 0
0.46875 0.5 0
0.5 0.5 0
0.46875 0.53125 0
0.5 0.53125 0
0.4375 0.53125 0
0.46875 0.53125 0
0.4375 0.5625 0
0.46875 0.5625 0
0.46875 0.53125 0
0.5 0.53125 0
0.46875 0.5625 0
0.5 0.5625 0
0.375 0.5625 0
0.40625 0.5625 0
0.375 0.59375 0
0.40625 0.59375 0
0.40625 0.5625 0
0.4375 0.5625 0
0.40625 0.59375 0
0.4375 0.59375 0
0.375 0.59375 0
0.40625 0.59375 0
0.375 0.625 0
0.40625 0.625 0
0.40625 0.59375 0
0.4375 0.59375 0
0.40625 0.625 0
0.4375 0.625 0
0.4375 0.5625 0
0.46875 0.5625 0
0.4375 0.59375 0
0.46875 0.59375 0
0.46875 0.5625 0
0.5 0.5625 0
0.46875 0.59375 0
0.5 0.59375 0
0.4375 0.59375 0
0.46875 0.59375 0
0.4375 0.625 0
0.46875 0.625 0
0.46875 0.59375 0
0.5 0.59375 0
0.46875 0.625 0
0.5 0.625 0
0.25 0.625 0
0.28125 0.625 0
0.25 0.65625 0
0.28125 0.65625 0
0.28125 0.625 0
0.3125 0.625 0
0.28125 0.65625 0
0.3125 0.65625 0
0.25 0.65625 0
0.28125 0.65625 0
0.25 0.6875 0
0.28125 0.6875 0
0.28125 0.65625 0
0.3125 0.65625 0
0.28125 0.6875 0
0.3125 0.6875 0
0.3125 0.625 0
0.34375 0.625 0
0.3125 0.65625 0
0.34375 0.65625 0
0.34375 0.625 0
0.375 0.625 0
0.34375 0.65625 0
0.375 0.65625 0
0.3125 0.65625 0
0.34375 0.65625 0
0.3125 0.6875 0
0.34375 0.6875 0
0.34375 0.65625 0
0.375 0.65625 0
0.34375 0.6875 0
0.375 0.6875 0
0.25 0.6875 0
0.28125 0.6875 0
0.25 0.71875 0
0.28125 0.71875 0
0.28125 0.6875 0
0.3125 0.6875 0
0.28125 0.71875 0
0.3125 0.71875 0
0.25 0.71875 0
0.28125 0.71875 0
0.25 0.75 0
0.28125 0.75 0
0.28125 0.71875 0
0.3125 0.71875 0
0.28125 0.75 0
0.3125 0.75 0
0.3125 0.6875 0
0.34375 0.6875 0
0.3125 0.71875 0
0.34375 0.71875 0
0.34375 0.6875 0
0.375 0.6875 0
0.34375 0.71875 0
0.375 0.71875 0
0.3125 0.71875 0
0.34375 0.71875 0
0.3125 0.75 0
0.34375 0.75 0
0.34375 0.71875 0
0.375 0.71875 0
0.34375 0.75 0
0.375 0.75 0
0.375 0.625 0
0.40625 0.625 0
0.375 0.65625 0
0.40625 0.65625 0
0.40625 0.625 0
0.4375 0.625 0
0.40625 0.65625 0
0.4375 0.65625 0
0.375 0.65625 0
0.40625 0.65625 0
0.375 0.6875 0
0.40625 0.6875 0
0.40625 0.65625 0
0.4375 0.65625 0
0.40625 0.6875 0
0.4375 0.6875 0
0.4375 0.625 0
0.46875 0.625 0
0.4375 0.65625 0
0.46875 0.65625 0
0.46875 0.625 0
0.5 0.625 0
0.46875 0.65625 0
0.5 0.65625 0
0.4375 0.65625 0
0.46875 0.65625 0
0.4375 0.6875 0
0.46875 0.6875 0
0.46875 0.65625 0
0.5 0.65625 0
0.46875 0.6875 0
0.5 0.6875 0
0.375 0.6875 0
0.40625 0.6875 0
0.375 0.71875 0
0.40625 0.71875 0
0.40625 0.6875 0
0.4375 0.6875 0
0.40625 0.71875 0
0.4375 0.71875 0
0.375 0.71875 0
0.40625 0.71875 0
0.375 0.75 0
0.40625 0.75 0
0.40625 0.71875 0
0.4375 0.71875 0
0.40625 0.75 0
0.4375 0.75 0
0.4375 0.6875 0
0.46875 0.6875 0
0.4375 0.71875 0
0.46875 0.71875 0
0.46875 0.6875 0
0.5 0.6875 0
0.46875 0.71875 0
0.5 0.71875 0
0.4375 0.71875 0
0.46875 0.71875 0
0.4375 0.75 0
0.46875 0.75 0
0.46875 0.71875 0
0.5 0.71875 0
0.46875 0.75 0
0.5 0.75 0
0 0.75 0
0.03125 0.75 0
0 0.78125 0
0.03125 0.78125 0
0.03125 0.75 0
0.0625 0.75 0
0.03125 0.78125 0
0.0625 0.78125 0
0 0.78125 0
0.03125 0.78125 0
0 0.8125 0
0.03125 0.8125 0
0.03125 0.78125 0
0.0625 0.78125 0
0.03125 0.8125 0
0.0625 0.8125 0
0.0625 0.75 0
0.09375 0.75 0
0.0625 0.78125 0
0.09375 0.78125 0
0.09375 0.75 0
0.125 0.75 0
0.09375 0.78125 0
0.125 0.78125 0
0.0625 0.78125 0
0.09375 0.78125 0
0.0625 0.8125 0
0.09375 0.8125 0
0.09375 0.78125 0
0.125 0.78125 0
0.09375 0.8125 0
0.125 0.8125 0
0 0.8125 0
0.03125 0.8125 0
0 0.84375 0
0.03125 0.84375 0
0.03125 0.8125 0
0.0625 0.8125 0
0.03125 0.84375 0
0.0625 0.84375 0
0 0.84375 0
0.03125 0.84375 0
0 0.875 0
0.03125 0.875 0
0.03125 0.84375 0
0.0625 0.84375 0
0.03125 0.875 0
0.0625 0.875 0
0.0625 0.8125 0
0.09375 0.8125 0
0.0625 0.84375 0
0.09375 0.84375 0
0.09375 0.8125 0
0.125 0.8125 0
0.09375 0.84375 0
0.125 0.84375 0
0.0625 0.84375 0
0.09375 0.84375 0
0.0625 0.875 0
0.09375 0.875 0
0.09375 0.84375 0
0.125 0.84375 0
0.09375 0.875 0
0.125 0.875 0
0.125 0.75 0
0.15625 0.75 0
0.125 0.78125 0
0.15625 0.78125 0
0.15625 0.75 0
0.1875 0.75 0
0.15625 0.78125 0
0.1875 0.78125 0
0.125 0.78125 0
0.15625 0.78125 0
0.125 0.8125 0
0.15625 0.8125 0
0.15625 0.78125 0
0.1875 0.78125 0
0.15625 0.8125 0
0.1875 0.8125 0
0.1875 0.75 0
0.21875 0.75 0
0.1875 0.78125 0
0.21875 0.78125 0
0.21875 0.75 0
0.25 0.75 0
0.21875 0.78125 0
0.25 0.78125 0
0.1875 0.78125 0
0.21875 0.78125 0
0.1875 0.8125 0
0.21875 0.8125 0
0.21875 0.78125 0
0.25 0.78125 0
0.21875 0.8125 0
0.25 0.8125 0
0.125 0.8125 0
0.15625 0.8125 0
0.125 0.84375 0
0.15625 0.84375 0
0.15625 0.8125 0
[...]
POINT_DATA 4096
SCALARS x_dis double 1
LOOKUP_TABLE default
2.96866e-09 2.96858e-09 1.84117e-08 1.84114e-08 2.96858e-09 2.96838e-09 1.84114e-08 1.84105e-08 1.84117e-08 1.84114e-08 -7.84367e-08 -7.84366e-08 1.84114e-08 1.84105e-08 -7.84366e-08 -7.84365e-08 2.96838e-09 2.96812e-09 1.84105e-08 1.84093e-08 2.96812e-09 2.96789e-09 1.84093e-08 1.84082e-08 1.84105e-08 1.84093e-08 -7.84365e-08 -7.84365e-08 1.84093e-08 1.84082e-08 -7.84365e-08 -7.84368e-08 -7.84367e-08 -7.84366e-08 7.72414e-08 7.72448e-08 -7.84366e-08 -7.84365e-08 7.72448e-08 7.72541e-08 7.72414e-08 7.72448e-08 3.694e-07 3.69413e-07 7.72448e-08 7.72541e-08 3.69413e-07 3.69449e-07 -7.84365e-08 -7.84365e-08 7.72541e-08 7.72664e-08 -7.84365e-08 -7.84368e-08 7.72664e-08 7.72784e-08 7.72541e-08 7.72664e-08 3.69449e-07 3.695e-07 7.72664e-08 7.72784e-08 3.695e-07 3.69554e-07 2.96789e-09 2.96772e-09 1.84082e-08 1.84072e-08 2.96772e-09 2.96762e-09 1.84072e-08 1.84065e-08 1.84082e-08 1.84072e-08 -7.84368e-08 -7.84373e-08 1.84072e-08 1.84065e-08 -7.84373e-08 -7.84378e-08 2.96762e-09 2.96758e-09 1.84065e-08 1.84061e-08 2.96758e-09 2.96756e-09 1.84061e-08 1.84059e-08 1.84065e-08 1.84061e-08 -7.84378e-08 -7.84382e-08 1.84061e-08 1.84059e-08 -7.84382e-08 -7.84386e-08 -7.84368e-08 -7.84373e-08 7.72784e-08 7.7288e-08 -7.84373e-08 -7.84378e-08 7.7288e-08 7.72944e-08 7.72784e-08 7.7288e-08 3.69554e-07 3.69601e-07 7.7288e-08 7.72944e-08 3.69601e-07 3.69636e-07 -7.84378e-08 -7.84382e-08 7.72944e-08 7.72981e-08 -7.84382e-08 -7.84386e-08 7.72981e-08 7.72999e-08 7.72944e-08 7.72981e-08 3.69636e-07 3.69658e-07 7.72981e-08 7.72999e-08 3.69658e-07 3.6967e-07 3.694e-07 3.69413e-07 -1.21035e-06 -1.21032e-06 3.69413e-07 3.69449e-07 -1.21032e-06 -1.21023e-06 -1.21035e-06 -1.21032e-06 -7.09058e-07 -7.0898e-07 -1.21032e-06 -1.21023e-06 -7.0898e-07 -7.08766e-07 3.69449e-07 3.695e-07 -1.21023e-06 -1.21009e-06 3.695e-07 3.69554e-07 -1.21009e-06 -1.20995e-06 -1.21023e-06 -1.21009e-06 -7.08766e-07 -7.0847e-07 -1.21009e-06 -1.20995e-06 -7.0847e-07 -7.08151e-07 -7.09058e-07 -7.0898e-07 7.73805e-06 7.73821e-06 -7.0898e-07 -7.08766e-07 7.73821e-06 7.73866e-06 7.73805e-06 7.73821e-06 4.77731e-06 4.77762e-06 7.73821e-06 7.73866e-06 4.77762e-06 4.77846e-06 -7.08766e-07 -7.0847e-07 7.73866e-06 7.73926e-06 -7.0847e-07 -7.08151e-07 7.73926e-06 7.73989e-06 7.73866e-06 7.73926e-06 4.77846e-06 4.77955e-06 7.73926e-06 7.73989e-06 4.77955e-06 4.78066e-06 3.69554e-07 3.69601e-07 -1.20995e-06 -1.20981e-06 3.69601e-07 3.69636e-07 -1.20981e-06 -1.20971e-06 -1.20995e-06 -1.20981e-06 -7.08151e-07 -7.07855e-07 -1.20981e-06 -1.20971e-06 -7.07855e-07 -7.07613e-07 3.69636e-07 3.69658e-07 -1.20971e-06 -1.20963e-06 3.69658e-07 3.6967e-07 -1.20963e-06 -1.20959e-06 -1.20971e-06 -1.20963e-06 -7.07613e-07 -7.07439e-07 -1.20963e-06 -1.20959e-06 -7.07439e-07 -7.07332e-07 -7.08151e-07 -7.07855e-07 7.73989e-06 7.74045e-06 -7.07855e-07 -7.07613e-07 7.74045e-06 7.74091e-06 7.73989e-06 7.74045e-06 4.78066e-06 4.78165e-06 7.74045e-06 7.74091e-06 4.78165e-06 4.78243e-06 -7.07613e-07 -7.07439e-07 7.74091e-06 7.74124e-06 -7.07439e-07 -7.07332e-07 7.74124e-06 7.74147e-06 7.74091e-06 7.74124e-06 4.78243e-06 4.78299e-06 7.74124e-06 7.74147e-06 4.78299e-06 4.78337e-06 2.96756e-09 2.96756e-09 1.84059e-08 1.84059e-08 2.96756e-09 2.9676e-09 1.84059e-08 1.84064e-08 1.84059e-08 1.84059e-08 -7.84386e-08 -7.84386e-08 1.84059e-08 1.84064e-08 -7.84386e-08 -7.84384e-08 2.9676e-09 2.96757e-09 1.84064e-08 1.84045e-08 2.96757e-09 2.96729e-09 1.84045e-08 1.84004e-08 1.84064e-08 1.84045e-08 -7.84384e-08 -7.844e-08 1.84045e-08 1.84004e-08 -7.844e-08 -7.84417e-08 -7.84386e-08 -7.84386e-08 7.72999e-08 7.73006e-08 -7.84386e-08 -7.84384e-08 7.73006e-08 7.73009e-08 7.72999e-08 7.73006e-08 3.6967e-07 3.69675e-07 7.73006e-08 7.73009e-08 3.69675e-07 3.69677e-07 -7.84384e-08 -7.844e-08 7.73009e-08 7.73e-08 -7.844e-08 -7.84417e-08 7.73e-08 7.72989e-08 7.73009e-08 7.73e-08 3.69677e-07 3.69678e-07 7.73e-08 7.72989e-08 3.69678e-07 3.69676e-07 2.96729e-09 2.96772e-09 1.84004e-08 1.84203e-08 2.96772e-09 2.96853e-09 1.84203e-08 1.846e-08 1.84004e-08 1.84203e-08 -7.84417e-08 -7.84311e-08 1.84203e-08 1.846e-08 -7.84311e-08 -7.84297e-08 2.96853e-09 2.96583e-09 1.846e-08 1.83121e-08 2.96583e-09 2.96377e-09 1.83121e-08 1.7672e-08 1.846e-08 1.83121e-08 -7.84297e-08 -7.84143e-08 1.83121e-08 1.7672e-08 -7.84143e-08 -7.82533e-08 -7.84417e-08 -7.84311e-08 7.72989e-08 7.73041e-08 -7.84311e-08 -7.84297e-08 7.73041e-08 7.73102e-08 7.72989e-08 7.73041e-08 3.69676e-07 3.69675e-07 7.73041e-08 7.73102e-08 3.69675e-07 3.69684e-07 -7.84297e-08 -7.84143e-08 7.73102e-08 7.72902e-08 -7.84143e-08 -7.82533e-08 7.72902e-08 7.73131e-08 7.73102e-08 7.72902e-08 3.69684e-07 3.69698e-07 7.72902e-08 7.73131e-08 3.69698e-07 3.69657e-07 3.6967e-07 3.69675e-07 -1.20959e-06 -1.20957e-06 3.69675e-07 3.69677e-07 -1.20957e-06 -1.20956e-06 -1.20959e-06 -1.20957e-06 -7.07332e-07 -7.07275e-07 -1.20957e-06 -1.20956e-06 -7.07275e-07 -7.0725e-07 3.69677e-07 3.69678e-07 -1.20956e-06 -1.20956e-06 3.69678e-07 3.69676e-07 -1.20956e-06 -1.20956e-06 -1.20956e-06 -1.20956e-06 -7.0725e-07 -7.07241e-07 -1.20956e-06 -1.20956e-06 -7.07241e-07 -7.07239e-07 -7.07332e-07 -7.07275e-07 7.74147e-06 7.74159e-06 -7.07275e-07 -7.0725e-07 7.74159e-06 7.74165e-06 7.74147e-06 7.74159e-06 4.78337e-06 4.7836e-06 7.74159e-06 7.74165e-06 4.7836e-06 4.78372e-06 -7.0725e-07 -7.07241e-07 7.74165e-06 7.74167e-06 -7.07241e-07 -7.07239e-07 7.74167e-06 7.74168e-06 7.74165e-06 7.74167e-06 4.78372e-06 4.78376e-06 7.74167e-06 7.74168e-06 4.78376e-06 4.78378e-06 3.69676e-07 3.69675e-07 -1.20956e-06 -1.20956e-06 3.69675e-07 3.69684e-07 -1.20956e-06 -1.20956e-06 -1.20956e-06 -1.20956e-06 -7.07239e-07 -7.07238e-07 -1.20956e-06 -1.20956e-06 -7.07238e-07 -7.07239e-07 3.69684e-07 3.69698e-07 -1.20956e-06 -1.20956e-06 3.69698e-07 3.69657e-07 -1.20956e-06 -1.20955e-06 -1.20956e-06 -1.20956e-06 -7.07239e-07 -7.07242e-07 -1.20956e-06 -1.20955e-06 -7.07242e-07 -7.07244e-07 -7.07239e-07 -7.07238e-07 7.74168e-06 7.74168e-06 -7.07238e-07 -7.07239e-07 7.74168e-06 7.74168e-06 7.74168e-06 7.74168e-06 4.78378e-06 4.78378e-06 7.74168e-06 7.74168e-06 4.78378e-06 4.78378e-06 -7.07239e-07 -7.07242e-07 7.74168e-06 7.74168e-06 -7.07242e-07 -7.07244e-07 7.74168e-06 7.74168e-06 7.74168e-06 7.74168e-06 4.78378e-06 4.78378e-06 7.74168e-06 7.74168e-06 4.78378e-06 4.78378e-06 4.77731e-06 4.77762e-06 -3.85029e-05 -3.85022e-05 4.77762e-06 4.77846e-06 -3.85022e-05 -3.85007e-05 -3.85029e-05 -3.85022e-05 -0.00012035 -0.000120348 -3.85022e-05 -3.85007e-05 -0.000120348 -0.000120345 4.77846e-06 4.77955e-06 -3.85007e-05 -3.84989e-05 4.77955e-06 4.78066e-06 -3.84989e-05 -3.84971e-05 -3.85007e-05 -3.84989e-05 -0.000120345 -0.000120342 -3.84989e-05 -3.84971e-05 -0.000120342 -0.00012034 -0.00012035 -0.000120348 -0.000222044 -0.00022204 -0.000120348 -0.000120345 -0.00022204 -0.000222035 -0.000222044 -0.00022204 -0.000330418 -0.000330411 -0.00022204 -0.000222035 -0.000330411 -0.000330405 -0.000120345 -0.000120342 -0.000222035 -0.000222031 -0.000120342 -0.00012034 -0.000222031 -0.000222028 -0.000222035 -0.000222031 -0.000330405 -0.0003304 -0.000222031 -0.000222028 -0.0003304 -0.000330396 4.78066e-06 4.78165e-06 -3.84971e-05 -3.84956e-05 4.78165e-06 4.78243e-06 -3.84956e-05 -3.84944e-05 -3.84971e-05 -3.84956e-05 -0.00012034 -0.000120338 -3.84956e-05 -3.84944e-05 -0.000120338 -0.000120336 4.78243e-06 4.78299e-06 -3.84944e-05 -3.84935e-05 4.78299e-06 4.78337e-06 -3.84935e-05 -3.84929e-05 -3.84944e-05 -3.84935e-05 -0.000120336 -0.000120335 -3.84935e-05 -3.84929e-05 -0.000120335 -0.000120334 -0.00012034 -0.000120338 -0.000222028 -0.000222025 -0.000120338 -0.000120336 -0.000222025 -0.000222023 -0.000222028 -0.000222025 -0.000330396 -0.000330393 -0.000222025 -0.000222023 -0.000330393 -0.00033039 -0.000120336 -0.000120335 -0.000222023 -0.000222021 -0.000120335 -0.000120334 -0.000222021 -0.00022202 -0.000222023 -0.000222021 -0.00033039 -0.000330388 -0.000222021 -0.00022202 -0.000330388 -0.000330387 -0.000330418 -0.000330411 -0.000440104 -0.000440095 -0.000330411 -0.000330405 -0.000440095 -0.000440087 -0.000440104 -0.000440095 -0.000550086 -0.000550075 -0.000440095 -0.000440087 -0.000550075 -0.000550066 -0.000330405 -0.0003304 -0.000440087 -0.000440081 -0.0003304 -0.000330396 -0.000440081 -0.000440076 -0.000440087 -0.000440081 -0.000550066 -0.00055006 -0.000440081 -0.000440076 -0.00055006 -0.000550056 -0.000550086 -0.000550075 -0.000660038 -0.000660023 -0.000550075 -0.000550066 -0.000660023 -0.000660016 -0.000660038 -0.000660023 -0.00077 -0.00077 -0.000660023 -0.000660016 -0.00077 -0.00077 -0.000550066 -0.00055006 -0.000660016 -0.000660012 -0.00055006 -0.000550056 -0.000660012 -0.00066001 -0.000660016 -0.000660012 -0.00077 -0.00077 -0.000660012 -0.00066001 -0.00077 -0.00077 -0.000330396 -0.000330393 -0.000440076 -0.000440073 -0.000330393 -0.00033039 -0.000440073 -0.000440071 -0.000440076 -0.000440073 -0.000550056 -0.000550053 -0.000440073 -0.000440071 -0.000550053 -0.000550051 -0.00033039 -0.000330388 -0.000440071 -0.000440069 -0.000330388 -0.000330387 -0.000440069 -0.000440068 -0.000440071 -0.000440069 -0.000550051 -0.00055005 -0.000440069 -0.000440068 -0.00055005 -0.000550049 -0.000550056 -0.000550053 -0.00066001 -0.000660008 -0.000550053 -0.000550051 -0.000660008 -0.000660007 -0.00066001 -0.000660008 -0.00077 -0.00077 -0.000660008 -0.000660007 -0.00077 -0.00077 -0.000550051 -0.00055005 -0.000660007 -0.000660007 -0.00055005 -0.000550049 -0.000660007 -0.000660006 -0.000660007 -0.000660007 -0.00077 -0.00077 -0.000660007 -0.000660006 -0.00077 -0.00077 4.78337e-06 4.7836e-06 -3.84929e-05 -3.84926e-05 4.7836e-06 4.78372e-06 -3.84926e-05 -3.84924e-05 -3.84929e-05 -3.84926e-05 -0.000120334 -0.000120333 -3.84926e-05 -3.84924e-05 -0.000120333 -0.000120333 4.78372e-06 4.78376e-06 -3.84924e-05 -3.84923e-05 4.78376e-06 4.78378e-06 -3.84923e-05 -3.84922e-05 -3.84924e-05 -3.84923e-05 -0.000120333 -0.000120333 -3.84923e-05 -3.84922e-05 -0.000120333 -0.000120333 -0.000120334 -0.000120333 -0.00022202 -0.000222019 -0.000120333 -0.000120333 -0.000222019 -0.000222019 -0.00022202 -0.000222019 -0.000330387 -0.000330386 -0.000222019 -0.000222019 -0.000330386 -0.000330386 -0.000120333 -0.000120333 -0.000222019 -0.000222019 -0.000120333 -0.000120333 -0.000222019 -0.000222019 -0.000222019 -0.000222019 -0.000330386 -0.000330386 -0.000222019 -0.000222019 -0.000330386 -0.000330386 4.78378e-06 4.78378e-06 -3.84922e-05 -3.84922e-05 4.78378e-06 4.78378e-06 -3.84922e-05 -3.84922e-05 -3.84922e-05 -3.84922e-05 -0.000120333 -0.000120333 -3.84922e-05 -3.84922e-05 -0.000120333 -0.000120333 4.78378e-06 4.78378e-06 -3.84922e-05 -3.84922e-05 4.78378e-06 4.78378e-06 -3.84922e-05 -3.84922e-05 -3.84922e-05 -3.84922e-05 -0.000120333 -0.000120333 -3.84922e-05 -3.84922e-05 -0.000120333 -0.000120333 -0.000120333 -0.000120333 -0.000222019 -0.000222019 -0.000120333 -0.000120333 -0.000222019 -0.000222019 -0.000222019 -0.000222019 -0.000330386 -0.000330386 -0.000222019 -0.000222019 -0.000330386 -0.000330386 -0.000120333 -0.000120333 -0.000222019 -0.000222019 -0.000120333 -0.000120333 -0.000222019 -0.000222019 -0.000222019 -0.000222019 -0.000330386 -0.000330386 -0.000222019 -0.000222019 -0.000330386 -0.000330386 -0.000330387 -0.000330386 -0.000440068 -0.000440067 -0.000330386 -0.000330386 -0.000440067 -0.000440067 -0.000440068 -0.000440067 -0.000550049 -0.000550049 -0.000440067 -0.000440067 -0.000550049 -0.000550048 -0.000330386 -0.000330386 -0.000440067 -0.000440066 -0.000330386 -0.000330386 -0.000440066 -0.000440066 -0.000440067 -0.000440066 -0.000550048 -0.000550048 -0.000440066 -0.000440066 -0.000550048 -0.000550048 -0.000550049 -0.000550049 -0.000660006 -0.000660006 -0.000550049 -0.000550048 -0.000660006 -0.000660006 -0.000660006 -0.000660006 -0.00077 -0.00077 -0.000660006 -0.000660006 -0.00077 -0.00077 -0.000550048 -0.000550048 -0.000660006 -0.000660005 -0.000550048 -0.000550048 -0.000660005 -0.000660005 -0.000660006 -0.000660005 -0.00077 -0.00077 -0.000660005 -0.000660005 -0.00077 -0.00077 -0.000330386 -0.000330386 -0.000440066 -0.000440066 -0.000330386 -0.000330386 -0.000440066 -0.000440066 -0.000440066 -0.000440066 -0.000550048 -0.000550048 -0.000440066 -0.000440066 -0.000550048 -0.000550048 -0.000330386 -0.000330386 -0.000440066 -0.000440066 -0.000330386 -0.000330386 -0.000440066 -0.000440066 -0.000440066 -0.000440066 -0.000550048 -0.000550048 -0.000440066 -0.000440066 -0.000550048 -0.000550048 -0.000550048 -0.000550048 -0.000660005 -0.000660005 -0.000550048 -0.000550048 -0.000660005 -0.000660005 -0.000660005 -0.000660005 -0.00077 -0.00077 -0.000660005 -0.000660005 -0.00077 -0.00077 -0.000550048 -0.000550048 -0.000660005 -0.000660005 -0.000550048 -0.000550048 -0.000660005 -0.000660005 -0.000660005 -0.000660005 -0.00077 -0.00077 -0.000660005 -0.000660005 -0.00077 -0.00077 2.96377e-09 8.72677e-09 1.7672e-08 1.53395e-08 8.72677e-09 6.60552e-09 1.53395e-08 1.47712e-08 1.7672e-08 1.53395e-08 -7.82533e-08 -7.75857e-08 1.53395e-08 1.47712e-08 -7.75857e-08 -7.72801e-08 6.60552e-09 5.65625e-09 1.47712e-08 1.46555e-08 5.65625e-09 5.84452e-09 1.46555e-08 1.48005e-08 1.47712e-08 1.46555e-08 -7.72801e-08 -7.72234e-08 1.46555e-08 1.48005e-08 -7.72234e-08 -7.72491e-08 -7.82533e-08 -7.75857e-08 7.73131e-08 7.72896e-08 -7.75857e-08 -7.72801e-08 7.72896e-08 7.72229e-08 7.73131e-08 7.72896e-08 3.69657e-07 3.69583e-07 7.72896e-08 7.72229e-08 3.69583e-07 3.69554e-07 -7.72801e-08 -7.72234e-08 7.72229e-08 7.71592e-08 -7.72234e-08 -7.72491e-08 7.71592e-08 7.71766e-08 7.72229e-08 7.71592e-08 3.69554e-07 3.69586e-07 7.71592e-08 7.71766e-08 3.69586e-07 3.69602e-07 5.84452e-09 5.96787e-09 1.48005e-08 1.48629e-08 5.96787e-09 5.94901e-09 1.48629e-08 1.48379e-08 1.48005e-08 1.48629e-08 -7.72491e-08 -7.72377e-08 1.48629e-08 1.48379e-08 -7.72377e-08 -7.72372e-08 5.94901e-09 5.93009e-09 1.48379e-08 1.4828e-08 5.93009e-09 5.93325e-09 1.4828e-08 1.4832e-08 1.48379e-08 1.4828e-08 -7.72372e-08 -7.72413e-08 1.4828e-08 1.4832e-08 -7.72413e-08 -7.72413e-08 -7.72491e-08 -7.72377e-08 7.71766e-08 7.71912e-08 -7.72377e-08 -7.72372e-08 7.71912e-08 7.71877e-08 7.71766e-08 7.71912e-08 3.69602e-07 3.69596e-07 7.71912e-08 7.71877e-08 3.69596e-07 3.69591e-07 -7.72372e-08 -7.72413e-08 7.71877e-08 7.71845e-08 -7.72413e-08 -7.72413e-08 7.71845e-08 7.71858e-08 7.71877e-08 7.71845e-08 3.69591e-07 3.69594e-07 7.71845e-08 7.71858e-08 3.69594e-07 3.69601e-07 3.69657e-07 3.69583e-07 -1.20955e-06 -1.20952e-06 3.69583e-07 3.69554e-07 -1.20952e-06 -1.2095e-06 -1.20955e-06 -1.20952e-06 -7.07244e-07 -7.07246e-07 -1.20952e-06 -1.2095e-06 -7.07246e-07 -7.07251e-07 3.69554e-07 3.69586e-07 -1.2095e-06 -1.2095e-06 3.69586e-07 3.69602e-07 -1.2095e-06 -1.2095e-06 -1.2095e-06 -1.2095e-06 -7.07251e-07 -7.07257e-07 -1.2095e-06 -1.2095e-06 -7.07257e-07 -7.07257e-07 -7.07244e-07 -7.07246e-07 7.74168e-06 7.74168e-06 -7.07246e-07 -7.07251e-07 7.74168e-06 7.74168e-06 7.74168e-06 7.74168e-06 4.78378e-06 4.78378e-06 7.74168e-06 7.74168e-06 4.78378e-06 4.78378e-06 -7.07251e-07 -7.07257e-07 7.74168e-06 7.74168e-06 -7.07257e-07 -7.07257e-07 7.74168e-06 7.74168e-06 7.74168e-06 7.74168e-06 4.78378e-06 4.78378e-06 7.74168e-06 7.74168e-06 4.78378e-06 4.78378e-06 3.69602e-07 3.69596e-07 -1.2095e-06 -1.20951e-06 3.69596e-07 3.69591e-07 -1.20951e-06 -1.2095e-06 -1.2095e-06 -1.20951e-06 -7.07257e-07 -7.07253e-07 -1.20951e-06 -1.2095e-06 -7.07253e-07 -7.07243e-07 3.69591e-07 3.69594e-07 -1.2095e-06 -1.20949e-06 3.69594e-07 3.69601e-07 -1.20949e-06 -1.20947e-06 -1.2095e-06 -1.20949e-06 -7.07243e-07 -7.07219e-07 -1.20949e-06 -1.20947e-06 -7.07219e-07 -7.07162e-07 -7.07257e-07 -7.07253e-07 7.74168e-06 7.74169e-06 -7.07253e-07 -7.07243e-07 7.74169e-06 7.74171e-06 7.74168e-06 7.74169e-06 4.78378e-06 4.7838e-06 7.74169e-06 7.74171e-06 4.7838e-06 4.78385e-06 -7.07243e-07 -7.07219e-07 7.74171e-06 7.74177e-06 -7.07219e-07 -7.07162e-07 7.74177e-06 7.74189e-06 7.74171e-06 7.74177e-06 4.78385e-06 4.78396e-06 7.74177e-06 7.74189e-06 4.78396e-06 4.78419e-06 5.93325e-09 5.93598e-09 1.4832e-08 1.48329e-08 5.93598e-09 5.93515e-09 1.48329e-08 1.48319e-08 1.4832e-08 1.48329e-08 -7.72413e-08 -7.72409e-08 1.48329e-08 1.48319e-08 -7.72409e-08 -7.72414e-08 5.93515e-09 5.93469e-09 1.48319e-08 1.48312e-08 5.93469e-09 5.93453e-09 1.48312e-08 1.48304e-08 1.48319e-08 1.48312e-08 -7.72414e-08 -7.7242e-08 1.48312e-08 1.48304e-08 -7.7242e-08 -7.72425e-08 -7.72413e-08 -7.72409e-08 7.71858e-08 7.71882e-08 -7.72409e-08 -7.72414e-08 7.71882e-08 7.71918e-08 7.71858e-08 7.71882e-08 3.69601e-07 3.69612e-07 7.71882e-08 7.71918e-08 3.69612e-07 3.69634e-07 -7.72414e-08 -7.7242e-08 7.71918e-08 7.7198e-08 -7.7242e-08 -7.72425e-08 7.7198e-08 7.72077e-08 7.71918e-08 7.7198e-08 3.69634e-07 3.69669e-07 7.7198e-08 7.72077e-08 3.69669e-07 3.69716e-07 5.93453e-09 5.93412e-09 1.48304e-08 1.48293e-08 5.93412e-09 5.93365e-09 1.48293e-08 1.48282e-08 1.48304e-08 1.48293e-08 -7.72425e-08 -7.72429e-08 1.48293e-08 1.48282e-08 -7.72429e-08 -7.7243e-08 5.93365e-09 5.93328e-09 1.48282e-08 1.48274e-08 5.93328e-09 5.93315e-09 1.48274e-08 1.48271e-08 1.48282e-08 1.48274e-08 -7.7243e-08 -7.7243e-08 1.48274e-08 1.48271e-08 -7.7243e-08 -7.72429e-08 -7.72425e-08 -7.72429e-08 7.72077e-08 7.72198e-08 -7.72429e-08 -7.7243e-08 7.72198e-08 7.72321e-08 7.72077e-08 7.72198e-08 3.69716e-07 3.6977e-07 7.72198e-08 7.72321e-08 3.6977e-07 3.69821e-07 -7.7243e-08 -7.7243e-08 7.72321e-08 7.72413e-08 -7.7243e-08 -7.72429e-08 7.72413e-08 7.72447e-08 7.72321e-08 7.72413e-08 3.69821e-07 3.69857e-07 7.72413e-08 7.72447e-08 3.69857e-07 3.6987e-07 3.69601e-07 3.69612e-07 -1.20947e-06 -1.20943e-06 3.69612e-07 3.69634e-07 -1.20943e-06 -1.20936e-06 -1.20947e-06 -1.20943e-06 -7.07162e-07 -7.07055e-07 -1.20943e-06 -1.20936e-06 -7.07055e-07 -7.0688e-07 3.69634e-07 3.69669e-07 -1.20936e-06 -1.20925e-06 3.69669e-07 3.69716e-07 -1.20925e-06 -1.20912e-06 -1.20936e-06 -1.20925e-06 -7.0688e-07 -7.06639e-07 -1.20925e-06 -1.20912e-06 -7.06639e-07 -7.06343e-07 -7.07162e-07 -7.07055e-07 7.74189e-06 7.74212e-06 -7.07055e-07 -7.0688e-07 7.74212e-06 7.74245e-06 7.74189e-06 7.74212e-06 4.78419e-06 4.78457e-06 7.74212e-06 7.74245e-06 4.78457e-06 4.78513e-06 -7.0688e-07 -7.06639e-07 7.74245e-06 7.74291e-06 -7.06639e-07 -7.06343e-07 7.74291e-06 7.74347e-06 7.74245e-06 7.74291e-06 4.78513e-06 4.78591e-06 7.74291e-06 7.74347e-06 4.78591e-06 4.7869e-06 3.69716e-07 3.6977e-07 -1.20912e-06 -1.20897e-06 3.6977e-07 3.69821e-07 -1.20897e-06 -1.20884e-06 -1.20912e-06 -1.20897e-06 -7.06343e-07 -7.06024e-07 -1.20897e-06 -1.20884e-06 -7.06024e-07 -7.05728e-07 3.69821e-07 3.69857e-07 -1.20884e-06 -1.20874e-06 3.69857e-07 3.6987e-07 -1.20874e-06 -1.20871e-06 -1.20884e-06 -1.20874e-06 -7.05728e-07 -7.05514e-07 -1.20874e-06 -1.20871e-06 -7.05514e-07 -7.05436e-07 -7.06343e-07 -7.06024e-07 7.74347e-06 7.7441e-06 -7.06024e-07 -7.05728e-07 7.7441e-06 7.7447e-06 7.74347e-06 7.7441e-06 4.7869e-06 4.78801e-06 7.7441e-06 7.7447e-06 4.78801e-06 4.7891e-06 -7.05728e-07 -7.05514e-07 7.7447e-06 7.74515e-06 -7.05514e-07 -7.05436e-07 7.74515e-06 7.74531e-06 7.7447e-06 7.74515e-06 4.7891e-06 4.78994e-06 7.74515e-06 7.74531e-06 4.78994e-06 4.79025e-06 4.78378e-06 4.78378e-06 -3.84922e-05 -3.84922e-05 4.78378e-06 4.78378e-06 -3.84922e-05 -3.84922e-05 -3.84922e-05 -3.84922e-05 -0.000120333 -0.000120333 -3.84922e-05 -3.84922e-05 -0.000120333 -0.000120333 4.78378e-06 4.78378e-06 -3.84922e-05 -3.84922e-05 4.78378e-06 4.78378e-06 -3.84922e-05 -3.84922e-05 -3.84922e-05 -3.84922e-05 -0.000120333 -0.000120333 -3.84922e-05 -3.84922e-05 -0.000120333 -0.000120333 -0.000120333 -0.000120333 -0.000222019 -0.000222019 -0.000120333 -0.000120333 -0.000222019 -0.000222019 -0.000222019 -0.000222019 -0.000330386 -0.000330386 -0.000222019 -0.000222019 -0.000330386 -0.000330386 -0.000120333 -0.000120333 -0.000222019 -0.000222019 -0.000120333 -0.000120333 -0.000222019 -0.000222019 -0.000222019 -0.000222019 -0.000330386 -0.000330386 -0.000222019 -0.000222019 -0.000330386 -0.000330386 4.78378e-06 4.7838e-06 -3.84922e-05 -3.84922e-05 4.7838e-06 4.78385e-06 -3.84922e-05 -3.84921e-05 -3.84922e-05 -3.84922e