# vtk DataFile Version 3.0
#This file was generated by the deal.II library on 2022/11/16 at 22:34:43
ASCII
DATASET UNSTRUCTURED_GRID

POINTS 4096 double
0 0.5 0
0.03125 0.5 0
0 0.53125 0
0.03125 0.53125 0
0.03125 0.5 0
0.0625 0.5 0
0.03125 0.53125 0
0.0625 0.53125 0
0 0.53125 0
0.03125 0.53125 0
0 0.5625 0
0.03125 0.5625 0
0.03125 0.53125 0
0.0625 0.53125 0
0.03125 0.5625 0
0.0625 0.5625 0
0.0625 0.5 0
0.09375 0.5 0
0.0625 0.53125 0
0.09375 0.53125 0
0.09375 0.5 0
0.125 0.5 0
0.09375 0.53125 0
0.125 0.53125 0
0.0625 0.53125 0
0.09375 0.53125 0
0.0625 0.5625 0
0.09375 0.5625 0
0.09375 0.53125 0
0.125 0.53125 0
0.09375 0.5625 0
0.125 0.5625 0
0 0.5625 0
0.03125 0.5625 0
0 0.59375 0
0.03125 0.59375 0
0.03125 0.5625 0
0.0625 0.5625 0
0.03125 0.59375 0
0.0625 0.59375 0
0 0.59375 0
0.03125 0.59375 0
0 0.625 0
0.03125 0.625 0
0.03125 0.59375 0
0.0625 0.59375 0
0.03125 0.625 0
0.0625 0.625 0
0.0625 0.5625 0
0.09375 0.5625 0
0.0625 0.59375 0
0.09375 0.59375 0
0.09375 0.5625 0
0.125 0.5625 0
0.09375 0.59375 0
0.125 0.59375 0
0.0625 0.59375 0
0.09375 0.59375 0
0.0625 0.625 0
0.09375 0.625 0
0.09375 0.59375 0
0.125 0.59375 0
0.09375 0.625 0
0.125 0.625 0
0.125 0.5 0
0.15625 0.5 0
0.125 0.53125 0
0.15625 0.53125 0
0.15625 0.5 0
0.1875 0.5 0
0.15625 0.53125 0
0.1875 0.53125 0
0.125 0.53125 0
0.15625 0.53125 0
0.125 0.5625 0
0.15625 0.5625 0
0.15625 0.53125 0
0.1875 0.53125 0
0.15625 0.5625 0
0.1875 0.5625 0
0.1875 0.5 0
0.21875 0.5 0
0.1875 0.53125 0
0.21875 0.53125 0
0.21875 0.5 0
0.25 0.5 0
0.21875 0.53125 0
0.25 0.53125 0
0.1875 0.53125 0
0.21875 0.53125 0
0.1875 0.5625 0
0.21875 0.5625 0
0.21875 0.53125 0
0.25 0.53125 0
0.21875 0.5625 0
0.25 0.5625 0
0.125 0.5625 0
0.15625 0.5625 0
0.125 0.59375 0
0.15625 0.59375 0
0.15625 0.5625 0
0.1875 0.5625 0
0.15625 0.59375 0
0.1875 0.59375 0
0.125 0.59375 0
0.15625 0.59375 0
0.125 0.625 0
0.15625 0.625 0
0.15625 0.59375 0
0.1875 0.59375 0
0.15625 0.625 0
0.1875 0.625 0
0.1875 0.5625 0
0.21875 0.5625 0
0.1875 0.59375 0
0.21875 0.59375 0
0.21875 0.5625 0
0.25 0.5625 0
0.21875 0.59375 0
0.25 0.59375 0
0.1875 0.59375 0
0.21875 0.59375 0
0.1875 0.625 0
0.21875 0.625 0
0.21875 0.59375 0
0.25 0.59375 0
0.21875 0.625 0
0.25 0.625 0
0 0.625 0
0.03125 0.625 0
0 0.65625 0
0.03125 0.65625 0
0.03125 0.625 0
0.0625 0.625 0
0.03125 0.65625 0
0.0625 0.65625 0
0 0.65625 0
0.03125 0.65625 0
0 0.6875 0
0.03125 0.6875 0
0.03125 0.65625 0
0.0625 0.65625 0
0.03125 0.6875 0
0.0625 0.6875 0
0.0625 0.625 0
0.09375 0.625 0
0.0625 0.65625 0
0.09375 0.65625 0
0.09375 0.625 0
0.125 0.625 0
0.09375 0.65625 0
0.125 0.65625 0
0.0625 0.65625 0
0.09375 0.65625 0
0.0625 0.6875 0
0.09375 0.6875 0
0.09375 0.65625 0
0.125 0.65625 0
0.09375 0.6875 0
0.125 0.6875 0
0 0.6875 0
0.03125 0.6875 0
0 0.71875 0
0.03125 0.71875 0
0.03125 0.6875 0
0.0625 0.6875 0
0.03125 0.71875 0
0.0625 0.71875 0
0 0.71875 0
0.03125 0.71875 0
0 0.75 0
0.03125 0.75 0
0.03125 0.71875 0
0.0625 0.71875 0
0.03125 0.75 0
0.0625 0.75 0
0.0625 0.6875 0
0.09375 0.6875 0
0.0625 0.71875 0
0.09375 0.71875 0
0.09375 0.6875 0
0.125 0.6875 0
0.09375 0.71875 0
0.125 0.71875 0
0.0625 0.71875 0
0.09375 0.71875 0
0.0625 0.75 0
0.09375 0.75 0
0.09375 0.71875 0
0.125 0.71875 0
0.09375 0.75 0
0.125 0.75 0
0.125 0.625 0
0.15625 0.625 0
0.125 0.65625 0
0.15625 0.65625 0
0.15625 0.625 0
0.1875 0.625 0
0.15625 0.65625 0
0.1875 0.65625 0
0.125 0.65625 0
0.15625 0.65625 0
0.125 0.6875 0
0.15625 0.6875 0
0.15625 0.65625 0
0.1875 0.65625 0
0.15625 0.6875 0
0.1875 0.6875 0
0.1875 0.625 0
0.21875 0.625 0
0.1875 0.65625 0
0.21875 0.65625 0
0.21875 0.625 0
0.25 0.625 0
0.21875 0.65625 0
0.25 0.65625 0
0.1875 0.65625 0
0.21875 0.65625 0
0.1875 0.6875 0
0.21875 0.6875 0
0.21875 0.65625 0
0.25 0.65625 0
0.21875 0.6875 0
0.25 0.6875 0
0.125 0.6875 0
0.15625 0.6875 0
0.125 0.71875 0
0.15625 0.71875 0
0.15625 0.6875 0
0.1875 0.6875 0
0.15625 0.71875 0
0.1875 0.71875 0
0.125 0.71875 0
0.15625 0.71875 0
0.125 0.75 0
0.15625 0.75 0
0.15625 0.71875 0
0.1875 0.71875 0
0.15625 0.75 0
0.1875 0.75 0
0.1875 0.6875 0
0.21875 0.6875 0
0.1875 0.71875 0
0.21875 0.71875 0
0.21875 0.6875 0
0.25 0.6875 0
0.21875 0.71875 0
0.25 0.71875 0
0.1875 0.71875 0
0.21875 0.71875 0
0.1875 0.75 0
0.21875 0.75 0
0.21875 0.71875 0
0.25 0.71875 0
0.21875 0.75 0
0.25 0.75 0
0.25 0.5 0
0.28125 0.5 0
0.25 0.53125 0
0.28125 0.53125 0
0.28125 0.5 0
0.3125 0.5 0
0.28125 0.53125 0
0.3125 0.53125 0
0.25 0.53125 0
0.28125 0.53125 0
0.25 0.5625 0
0.28125 0.5625 0
0.28125 0.53125 0
0.3125 0.53125 0
0.28125 0.5625 0
0.3125 0.5625 0
0.3125 0.5 0
0.34375 0.5 0
0.3125 0.53125 0
0.34375 0.53125 0
0.34375 0.5 0
0.375 0.5 0
0.34375 0.53125 0
0.375 0.53125 0
0.3125 0.53125 0
0.34375 0.53125 0
0.3125 0.5625 0
0.34375 0.5625 0
0.34375 0.53125 0
0.375 0.53125 0
0.34375 0.5625 0
0.375 0.5625 0
0.25 0.5625 0
0.28125 0.5625 0
0.25 0.59375 0
0.28125 0.59375 0
0.28125 0.5625 0
0.3125 0.5625 0
0.28125 0.59375 0
0.3125 0.59375 0
0.25 0.59375 0
0.28125 0.59375 0
0.25 0.625 0
0.28125 0.625 0
0.28125 0.59375 0
0.3125 0.59375 0
0.28125 0.625 0
0.3125 0.625 0
0.3125 0.5625 0
0.34375 0.5625 0
0.3125 0.59375 0
0.34375 0.59375 0
0.34375 0.5625 0
0.375 0.5625 0
0.34375 0.59375 0
0.375 0.59375 0
0.3125 0.59375 0
0.34375 0.59375 0
0.3125 0.625 0
0.34375 0.625 0
0.34375 0.59375 0
0.375 0.59375 0
0.34375 0.625 0
0.375 0.625 0
0.375 0.5 0
0.40625 0.5 0
0.375 0.53125 0
0.40625 0.53125 0
0.40625 0.5 0
0.4375 0.5 0
0.40625 0.53125 0
0.4375 0.53125 0
0.375 0.53125 0
0.40625 0.53125 0
0.375 0.5625 0
0.40625 0.5625 0
0.40625 0.53125 0
0.4375 0.53125 0
0.40625 0.5625 0
0.4375 0.5625 0
0.4375 0.5 0
0.46875 0.5 0
0.4375 0.53125 0
0.46875 0.53125 0
0.46875 0.5 0
0.5 0.5 0
0.46875 0.53125 0
0.5 0.53125 0
0.4375 0.53125 0
0.46875 0.53125 0
0.4375 0.5625 0
0.46875 0.5625 0
0.46875 0.53125 0
0.5 0.53125 0
0.46875 0.5625 0
0.5 0.5625 0
0.375 0.5625 0
0.40625 0.5625 0
0.375 0.59375 0
0.40625 0.59375 0
0.40625 0.5625 0
0.4375 0.5625 0
0.40625 0.59375 0
0.4375 0.59375 0
0.375 0.59375 0
0.40625 0.59375 0
0.375 0.625 0
0.40625 0.625 0
0.40625 0.59375 0
0.4375 0.59375 0
0.40625 0.625 0
0.4375 0.625 0
0.4375 0.5625 0
0.46875 0.5625 0
0.4375 0.59375 0
0.46875 0.59375 0
0.46875 0.5625 0
0.5 0.5625 0
0.46875 0.59375 0
0.5 0.59375 0
0.4375 0.59375 0
0.46875 0.59375 0
0.4375 0.625 0
0.46875 0.625 0
0.46875 0.59375 0
0.5 0.59375 0
0.46875 0.625 0
0.5 0.625 0
0.25 0.625 0
0.28125 0.625 0
0.25 0.65625 0
0.28125 0.65625 0
0.28125 0.625 0
0.3125 0.625 0
0.28125 0.65625 0
0.3125 0.65625 0
0.25 0.65625 0
0.28125 0.65625 0
0.25 0.6875 0
0.28125 0.6875 0
0.28125 0.65625 0
0.3125 0.65625 0
0.28125 0.6875 0
0.3125 0.6875 0
0.3125 0.625 0
0.34375 0.625 0
0.3125 0.65625 0
0.34375 0.65625 0
0.34375 0.625 0
0.375 0.625 0
0.34375 0.65625 0
0.375 0.65625 0
0.3125 0.65625 0
0.34375 0.65625 0
0.3125 0.6875 0
0.34375 0.6875 0
0.34375 0.65625 0
0.375 0.65625 0
0.34375 0.6875 0
0.375 0.6875 0
0.25 0.6875 0
0.28125 0.6875 0
0.25 0.71875 0
0.28125 0.71875 0
0.28125 0.6875 0
0.3125 0.6875 0
0.28125 0.71875 0
0.3125 0.71875 0
0.25 0.71875 0
0.28125 0.71875 0
0.25 0.75 0
0.28125 0.75 0
0.28125 0.71875 0
0.3125 0.71875 0
0.28125 0.75 0
0.3125 0.75 0
0.3125 0.6875 0
0.34375 0.6875 0
0.3125 0.71875 0
0.34375 0.71875 0
0.34375 0.6875 0
0.375 0.6875 0
0.34375 0.71875 0
0.375 0.71875 0
0.3125 0.71875 0
0.34375 0.71875 0
0.3125 0.75 0
0.34375 0.75 0
0.34375 0.71875 0
0.375 0.71875 0
0.34375 0.75 0
0.375 0.75 0
0.375 0.625 0
0.40625 0.625 0
0.375 0.65625 0
0.40625 0.65625 0
0.40625 0.625 0
0.4375 0.625 0
0.40625 0.65625 0
0.4375 0.65625 0
0.375 0.65625 0
0.40625 0.65625 0
0.375 0.6875 0
0.40625 0.6875 0
0.40625 0.65625 0
0.4375 0.65625 0
0.40625 0.6875 0
0.4375 0.6875 0
0.4375 0.625 0
0.46875 0.625 0
0.4375 0.65625 0
0.46875 0.65625 0
0.46875 0.625 0
0.5 0.625 0
0.46875 0.65625 0
0.5 0.65625 0
0.4375 0.65625 0
0.46875 0.65625 0
0.4375 0.6875 0
0.46875 0.6875 0
0.46875 0.65625 0
0.5 0.65625 0
0.46875 0.6875 0
0.5 0.6875 0
0.375 0.6875 0
0.40625 0.6875 0
0.375 0.71875 0
0.40625 0.71875 0
0.40625 0.6875 0
0.4375 0.6875 0
0.40625 0.71875 0
0.4375 0.71875 0
0.375 0.71875 0
0.40625 0.71875 0
0.375 0.75 0
0.40625 0.75 0
0.40625 0.71875 0
0.4375 0.71875 0
0.40625 0.75 0
0.4375 0.75 0
0.4375 0.6875 0
0.46875 0.6875 0
0.4375 0.71875 0
0.46875 0.71875 0
0.46875 0.6875 0
0.5 0.6875 0
0.46875 0.71875 0
0.5 0.71875 0
0.4375 0.71875 0
0.46875 0.71875 0
0.4375 0.75 0
0.46875 0.75 0
0.46875 0.71875 0
0.5 0.71875 0
0.46875 0.75 0
0.5 0.75 0
0 0.75 0
0.03125 0.75 0
0 0.78125 0
0.03125 0.78125 0
0.03125 0.75 0
0.0625 0.75 0
0.03125 0.78125 0
0.0625 0.78125 0
0 0.78125 0
0.03125 0.78125 0
0 0.8125 0
0.03125 0.8125 0
0.03125 0.78125 0
0.0625 0.78125 0
0.03125 0.8125 0
0.0625 0.8125 0
0.0625 0.75 0
0.09375 0.75 0
0.0625 0.78125 0
0.09375 0.78125 0
0.09375 0.75 0
0.125 0.75 0
0.09375 0.78125 0
0.125 0.78125 0
0.0625 0.78125 0
0.09375 0.78125 0
0.0625 0.8125 0
0.09375 0.8125 0
0.09375 0.78125 0
0.125 0.78125 0
0.09375 0.8125 0
0.125 0.8125 0
0 0.8125 0
0.03125 0.8125 0
0 0.84375 0
0.03125 0.84375 0
0.03125 0.8125 0
0.0625 0.8125 0
0.03125 0.84375 0
0.0625 0.84375 0
0 0.84375 0
0.03125 0.84375 0
0 0.875 0
0.03125 0.875 0
0.03125 0.84375 0
0.0625 0.84375 0
0.03125 0.875 0
0.0625 0.875 0
0.0625 0.8125 0
0.09375 0.8125 0
0.0625 0.84375 0
0.09375 0.84375 0
0.09375 0.8125 0
0.125 0.8125 0
0.09375 0.84375 0
0.125 0.84375 0
0.0625 0.84375 0
0.09375 0.84375 0
0.0625 0.875 0
0.09375 0.875 0
0.09375 0.84375 0
0.125 0.84375 0
0.09375 0.875 0
0.125 0.875 0
0.125 0.75 0
0.15625 0.75 0
0.125 0.78125 0
0.15625 0.78125 0
0.15625 0.75 0
0.1875 0.75 0
0.15625 0.78125 0
0.1875 0.78125 0
0.125 0.78125 0
0.15625 0.78125 0
0.125 0.8125 0
0.15625 0.8125 0
0.15625 0.78125 0
0.1875 0.78125 0
0.15625 0.8125 0
0.1875 0.8125 0
0.1875 0.75 0
0.21875 0.75 0
0.1875 0.78125 0
0.21875 0.78125 0
0.21875 0.75 0
0.25 0.75 0
0.21875 0.78125 0
0.25 0.78125 0
0.1875 0.78125 0
0.21875 0.78125 0
0.1875 0.8125 0
0.21875 0.8125 0
0.21875 0.78125 0
0.25 0.78125 0
0.21875 0.8125 0
0.25 0.8125 0
0.125 0.8125 0
0.15625 0.8125 0
0.125 0.84375 0
0.15625 0.84375 0
0.15625 0.8125 0
[...]
POINT_DATA 4096
SCALARS x_dis double 1
LOOKUP_TABLE default
-0.000710817 -0.000710698 -0.000820743 -0.000820627 -0.000710698 -0.000710603 -0.000820627 -0.000820554 -0.000820743 -0.000820627 -0.000930691 -0.000930577 -0.000820627 -0.000820554 -0.000930577 -0.00093052 -0.000710603 -0.000710533 -0.000820554 -0.000820544 -0.000710533 -0.00071049 -0.000820544 -0.000820634 -0.000820554 -0.000820544 -0.00093052 -0.00093056 -0.000820544 -0.000820634 -0.00093056 -0.000930757 -0.000930691 -0.000930577 -0.00104064 -0.00104053 -0.000930577 -0.00093052 -0.00104053 -0.00104048 -0.00104064 -0.00104053 -0.0011506 -0.00115048 -0.00104053 -0.00104048 -0.00115048 -0.00115042 -0.00093052 -0.00093056 -0.00104048 -0.00104054 -0.00093056 -0.000930757 -0.00104054 -0.00104081 -0.00104048 -0.00104054 -0.00115042 -0.00115049 -0.00104054 -0.00104081 -0.00115049 -0.00115077 -0.00071049 -0.000710477 -0.000820634 -0.000820885 -0.000710477 -0.000710491 -0.000820885 -0.000821403 -0.000820634 -0.000820885 -0.000930757 -0.000931221 -0.000820885 -0.000821403 -0.000931221 -0.00093214 -0.000710491 -0.000710524 -0.000821403 -0.000822339 -0.000710524 -0.000710564 -0.000822339 -0.000823875 -0.000821403 -0.000822339 -0.00093214 -0.000933787 -0.000822339 -0.000823875 -0.000933787 -0.000936499 -0.000930757 -0.000931221 -0.00104081 -0.0010414 -0.000931221 -0.00093214 -0.0010414 -0.00104255 -0.00104081 -0.0010414 -0.00115077 -0.00115141 -0.0010414 -0.00104255 -0.00115141 -0.00115261 -0.00093214 -0.000933787 -0.00104255 -0.00104459 -0.000933787 -0.000936499 -0.00104459 -0.00104794 -0.00104255 -0.00104459 -0.00115261 -0.00115471 -0.00104459 -0.00104794 -0.00115471 -0.00115812 -0.0011506 -0.00115048 -0.00126057 -0.00126044 -0.00115048 -0.00115042 -0.00126044 -0.00126037 -0.00126057 -0.00126044 -0.00137056 -0.00137042 -0.00126044 -0.00126037 -0.00137042 -0.00137032 -0.00115042 -0.00115049 -0.00126037 -0.00126041 -0.00115049 -0.00115077 -0.00126041 -0.00126067 -0.00126037 -0.00126041 -0.00137032 -0.00137032 -0.00126041 -0.00126067 -0.00137032 -0.00137051 -0.00137056 -0.00137042 -0.00148056 -0.00148041 -0.00137042 -0.00137032 -0.00148041 -0.00148028 -0.00148056 -0.00148041 -0.00159057 -0.00159042 -0.00148041 -0.00148028 -0.00159042 -0.00159027 -0.00137032 -0.00137032 -0.00148028 -0.00148023 -0.00137032 -0.00137051 -0.00148023 -0.00148034 -0.00148028 -0.00148023 -0.00159027 -0.00159016 -0.00148023 -0.00148034 -0.00159016 -0.00159018 -0.00115077 -0.00115141 -0.00126067 -0.00126126 -0.00115141 -0.00115261 -0.00126126 -0.00126237 -0.00126067 -0.00126126 -0.00137051 -0.001371 -0.00126126 -0.00126237 -0.001371 -0.00137194 -0.00115261 -0.00115471 -0.00126237 -0.00126427 -0.00115471 -0.00115812 -0.00126427 -0.0012673 -0.00126237 -0.00126427 -0.00137194 -0.00137351 -0.00126427 -0.0012673 -0.00137351 -0.00137594 -0.00137051 -0.001371 -0.00148034 -0.0014807 -0.001371 -0.00137194 -0.0014807 -0.00148142 -0.00148034 -0.0014807 -0.00159018 -0.0015904 -0.0014807 -0.00148142 -0.0015904 -0.0015909 -0.00137194 -0.00137351 -0.00148142 -0.00148263 -0.00137351 -0.00137594 -0.00148263 -0.00148444 -0.00148142 -0.00148263 -0.0015909 -0.00159176 -0.00148263 -0.00148444 -0.00159176 -0.00159304 -0.000710564 -0.000710595 -0.000823875 -0.000826226 -0.000710595 -0.000710599 -0.000826226 -0.000829665 -0.000823875 -0.000826226 -0.000936499 -0.000940661 -0.000826226 -0.000829665 -0.000940661 -0.000946734 -0.000710599 -0.000710568 -0.000829665 -0.000834615 -0.000710568 -0.000710495 -0.000834615 -0.000841809 -0.000829665 -0.000834615 -0.000946734 -0.00095536 -0.000834615 -0.000841809 -0.00095536 -0.000967534 -0.000936499 -0.000940661 -0.00104794 -0.00105306 -0.000940661 -0.000946734 -0.00105306 -0.00106044 -0.00104794 -0.00105306 -0.00115812 -0.00116327 -0.00105306 -0.00106044 -0.00116327 -0.00117058 -0.000946734 -0.00095536 -0.00106044 -0.00107069 -0.00095536 -0.000967534 -0.00107069 -0.00108456 -0.00106044 -0.00107069 -0.00117058 -0.00118045 -0.00107069 -0.00108456 -0.00118045 -0.0011932 -0.000710495 -0.000710363 -0.000841809 -0.000852626 -0.000710363 -0.000710108 -0.000852626 -0.000870035 -0.000841809 -0.000852626 -0.000967534 -0.000984874 -0.000852626 -0.000870035 -0.000984874 -0.00100979 -0.000710108 -0.000709392 -0.000870035 -0.000900725 -0.000709392 -0.000708352 -0.000900725 -0.00096752 -0.000870035 -0.000900725 -0.00100979 -0.00104592 -0.000900725 -0.00096752 -0.00104592 -0.00108393 -0.000967534 -0.000984874 -0.00108456 -0.00110294 -0.000984874 -0.00100979 -0.00110294 -0.00112649 -0.00108456 -0.00110294 -0.0011932 -0.00120896 -0.00110294 -0.00112649 -0.00120896 -0.00122705 -0.00100979 -0.00104592 -0.00112649 -0.0011532 -0.00104592 -0.00108393 -0.0011532 -0.0011805 -0.00112649 -0.0011532 -0.00122705 -0.00124605 -0.0011532 -0.0011805 -0.00124605 -0.00126393 -0.00115812 -0.00116327 -0.0012673 -0.00127178 -0.00116327 -0.00117058 -0.00127178 -0.00127799 -0.0012673 -0.00127178 -0.00137594 -0.00137941 -0.00127178 -0.00127799 -0.00137941 -0.00138404 -0.00117058 -0.00118045 -0.00127799 -0.00128607 -0.00118045 -0.0011932 -0.00128607 -0.00129603 -0.00127799 -0.00128607 -0.00138404 -0.00138978 -0.00128607 -0.00129603 -0.00138978 -0.00139641 -0.00137594 -0.00137941 -0.00148444 -0.00148692 -0.00137941 -0.00138404 -0.00148692 -0.00149004 -0.00148444 -0.00148692 -0.00159304 -0.00159475 -0.00148692 -0.00149004 -0.00159475 -0.00159675 -0.00138404 -0.00138978 -0.00149004 -0.00149362 -0.00138978 -0.00139641 -0.00149362 -0.00149733 -0.00149004 -0.00149362 -0.00159675 -0.00159882 -0.00149362 -0.00149733 -0.00159882 -0.00160058 -0.0011932 -0.00120896 -0.00129603 -0.00130753 -0.00120896 -0.00122705 -0.00130753 -0.0013198 -0.00129603 -0.00130753 -0.00139641 -0.00140348 -0.00130753 -0.0013198 -0.00140348 -0.00141033 -0.00122705 -0.00124605 -0.0013198 -0.0013317 -0.00124605 -0.00126393 -0.0013317 -0.00134224 -0.0013198 -0.0013317 -0.00141033 -0.00141622 -0.0013317 -0.00134224 -0.00141622 -0.00142062 -0.00139641 -0.00140348 -0.00149733 -0.00150071 -0.00140348 -0.00141033 -0.00150071 -0.00150327 -0.00149733 -0.00150071 -0.00160058 -0.00160161 -0.00150071 -0.00150327 -0.00160161 -0.00160153 -0.00141033 -0.00141622 -0.00150327 -0.00150454 -0.00141622 -0.00142062 -0.00150454 -0.00150432 -0.00150327 -0.00150454 -0.00160153 -0.00160008 -0.00150454 -0.00150432 -0.00160008 -0.00159725 -0.00159057 -0.00159042 -0.00170058 -0.00170043 -0.00159042 -0.00159027 -0.00170043 -0.00170027 -0.00170058 -0.00170043 -0.0018106 -0.00181044 -0.00170043 -0.00170027 -0.00181044 -0.00181028 -0.00159027 -0.00159016 -0.00170027 -0.00170013 -0.00159016 -0.00159018 -0.00170013 -0.00170007 -0.00170027 -0.00170013 -0.00181028 -0.00181012 -0.00170013 -0.00170007 -0.00181012 -0.00181002 -0.0018106 -0.00181044 -0.00192061 -0.00192046 -0.00181044 -0.00181028 -0.00192046 -0.00192029 -0.00192061 -0.00192046 -0.00203061 -0.00203046 -0.00192046 -0.00192029 -0.00203046 -0.0020303 -0.00181028 -0.00181012 -0.00192029 -0.00192013 -0.00181012 -0.00181002 -0.00192013 -0.00192 -0.00192029 -0.00192013 -0.0020303 -0.00203015 -0.00192013 -0.00192 -0.00203015 -0.00203002 -0.00159018 -0.0015904 -0.00170007 -0.00170016 -0.0015904 -0.0015909 -0.00170016 -0.00170045 -0.00170007 -0.00170016 -0.00181002 -0.00181 -0.00170016 -0.00170045 -0.00181 -0.00181012 -0.0015909 -0.00159176 -0.00170045 -0.001701 -0.00159176 -0.00159304 -0.001701 -0.00170185 -0.00170045 -0.001701 -0.00181012 -0.00181042 -0.001701 -0.00170185 -0.00181042 -0.00181091 -0.00181002 -0.00181 -0.00192 -0.00191993 -0.00181 -0.00181012 -0.00191993 -0.00191994 -0.00192 -0.00191993 -0.00203002 -0.00202992 -0.00191993 -0.00191994 -0.00202992 -0.00202987 -0.00181012 -0.00181042 -0.00191994 -0.00192005 -0.00181042 -0.00181091 -0.00192005 -0.00192029 -0.00191994 -0.00192005 -0.00202987 -0.00202989 -0.00192005 -0.00192029 -0.00202989 -0.00202996 -0.00203061 -0.00203046 -0.00214059 -0.00214044 -0.00203046 -0.0020303 -0.00214044 -0.0021403 -0.00214059 -0.00214044 -0.00225052 -0.00225038 -0.00214044 -0.0021403 -0.00225038 -0.00225026 -0.0020303 -0.00203015 -0.0021403 -0.00214017 -0.00203015 -0.00203002 -0.00214017 -0.00214005 -0.0021403 -0.00214017 -0.00225026 -0.00225016 -0.00214017 -0.00214005 -0.00225016 -0.00225007 -0.00225052 -0.00225038 -0.00236038 -0.00236024 -0.00225038 -0.00225026 -0.00236024 -0.00236016 -0.00236038 -0.00236024 -0.00247 -0.00247 -0.00236024 -0.00236016 -0.00247 -0.00247 -0.00225026 -0.00225016 -0.00236016 -0.0023601 -0.00225016 -0.00225007 -0.0023601 -0.00236004 -0.00236016 -0.0023601 -0.00247 -0.00247 -0.0023601 -0.00236004 -0.00247 -0.00247 -0.00203002 -0.00202992 -0.00214005 -0.00213995 -0.00202992 -0.00202987 -0.00213995 -0.00213988 -0.00214005 -0.00213995 -0.00225007 -0.00224998 -0.00213995 -0.00213988 -0.00224998 -0.0022499 -0.00202987 -0.00202989 -0.00213988 -0.00213984 -0.00202989 -0.00202996 -0.00213984 -0.00213984 -0.00213988 -0.00213984 -0.0022499 -0.00224984 -0.00213984 -0.00213984 -0.00224984 -0.0022498 -0.00225007 -0.00224998 -0.00236004 -0.00235999 -0.00224998 -0.0022499 -0.00235999 -0.00235993 -0.00236004 -0.00235999 -0.00247 -0.00247 -0.00235999 -0.00235993 -0.00247 -0.00247 -0.0022499 -0.00224984 -0.00235993 -0.00235988 -0.00224984 -0.0022498 -0.00235988 -0.00235984 -0.00235993 -0.00235988 -0.00247 -0.00247 -0.00235988 -0.00235984 -0.00247 -0.00247 -0.00159304 -0.00159475 -0.00170185 -0.00170298 -0.00159475 -0.00159675 -0.00170298 -0.00170429 -0.00170185 -0.00170298 -0.00181091 -0.00181161 -0.00170298 -0.00170429 -0.00181161 -0.00181245 -0.00159675 -0.00159882 -0.00170429 -0.00170553 -0.00159882 -0.00160058 -0.00170553 -0.00170638 -0.00170429 -0.00170553 -0.00181245 -0.00181328 -0.00170553 -0.00170638 -0.00181328 -0.00181385 -0.00181091 -0.00181161 -0.00192029 -0.00192065 -0.00181161 -0.00181245 -0.00192065 -0.00192112 -0.00192029 -0.00192065 -0.00202996 -0.0020301 -0.00192065 -0.00192112 -0.0020301 -0.0020303 -0.00181245 -0.00181328 -0.00192112 -0.00192163 -0.00181328 -0.00181385 -0.00192163 -0.00192207 -0.00192112 -0.00192163 -0.0020303 -0.00203053 -0.00192163 -0.00192207 -0.00203053 -0.00203077 -0.00160058 -0.00160161 -0.00170638 -0.00170647 -0.00160161 -0.00160153 -0.00170647 -0.00170551 -0.00170638 -0.00170647 -0.00181385 -0.00181391 -0.00170647 -0.00170551 -0.00181391 -0.00181323 -0.00160153 -0.00160008 -0.00170551 -0.00170334 -0.00160008 -0.00159725 -0.00170334 -0.00170006 -0.00170551 -0.00170334 -0.00181323 -0.00181173 -0.00170334 -0.00170006 -0.00181173 -0.00180949 -0.00181385 -0.00181391 -0.00192207 -0.00192229 -0.00181391 -0.00181323 -0.00192229 -0.00192215 -0.00192207 -0.00192229 -0.00203077 -0.00203095 -0.00192229 -0.00192215 -0.00203095 -0.00203102 -0.00181323 -0.00181173 -0.00192215 -0.0019216 -0.00181173 -0.00180949 -0.0019216 -0.00192067 -0.00192215 -0.0019216 -0.00203102 -0.00203096 -0.0019216 -0.00192067 -0.00203096 -0.00203077 -0.00202996 -0.0020301 -0.00213984 -0.00213987 -0.0020301 -0.0020303 -0.00213987 -0.00213992 -0.00213984 -0.00213987 -0.0022498 -0.00224978 -0.00213987 -0.00213992 -0.00224978 -0.00224978 -0.0020303 -0.00203053 -0.00213992 -0.00213997 -0.00203053 -0.00203077 -0.00213997 -0.00214003 -0.00213992 -0.00213997 -0.00224978 -0.00224979 -0.00213997 -0.00214003 -0.00224979 -0.0022498 -0.0022498 -0.00224978 -0.00235984 -0.00235981 -0.00224978 -0.00224978 -0.00235981 -0.00235981 -0.00235984 -0.00235981 -0.00247 -0.00247 -0.00235981 -0.00235981 -0.00247 -0.00247 -0.00224978 -0.00224979 -0.00235981 -0.00235982 -0.00224979 -0.0022498 -0.00235982 -0.00235984 -0.00235981 -0.00235982 -0.00247 -0.00247 -0.00235982 -0.00235984 -0.00247 -0.00247 -0.00203077 -0.00203095 -0.00214003 -0.00214008 -0.00203095 -0.00203102 -0.00214008 -0.0021401 -0.00214003 -0.00214008 -0.0022498 -0.00224979 -0.00214008 -0.0021401 -0.00224979 -0.00224978 -0.00203102 -0.00203096 -0.0021401 -0.00214009 -0.00203096 -0.00203077 -0.00214009 -0.00214006 -0.0021401 -0.00214009 -0.00224978 -0.00224975 -0.00214009 -0.00214006 -0.00224975 -0.00224972 -0.0022498 -0.00224979 -0.00235984 -0.00235986 -0.00224979 -0.00224978 -0.00235986 -0.00235987 -0.00235984 -0.00235986 -0.00247 -0.00247 -0.00235986 -0.00235987 -0.00247 -0.00247 -0.00224978 -0.00224975 -0.00235987 -0.00235986 -0.00224975 -0.00224972 -0.00235986 -0.00235985 -0.00235987 -0.00235986 -0.00247 -0.00247 -0.00235986 -0.00235985 -0.00247 -0.00247 -0.000708352 -0.000932202 -0.00096752 -0.00102127 -0.000932202 -0.00106507 -0.00102127 -0.00109517 -0.00096752 -0.00102127 -0.00108393 -0.00112341 -0.00102127 -0.00109517 -0.00112341 -0.00116116 -0.00106507 -0.0011547 -0.00109517 -0.00116407 -0.0011547 -0.00122107 -0.00116407 -0.00122188 -0.00109517 -0.00116407 -0.00116116 -0.00120416 -0.00116407 -0.00122188 -0.00120416 -0.00124635 -0.00108393 -0.00112341 -0.0011805 -0.00120535 -0.00112341 -0.00116116 -0.00120535 -0.00123013 -0.0011805 -0.00120535 -0.00126393 -0.00128007 -0.00120535 -0.00123013 -0.00128007 -0.0012952 -0.00116116 -0.00120416 -0.00123013 -0.0012563 -0.00120416 -0.00124635 -0.0012563 -0.00128417 -0.00123013 -0.0012563 -0.0012952 -0.001311 -0.0012563 -0.00128417 -0.001311 -0.00132798 -0.00122107 -0.00127169 -0.00122188 -0.00126912 -0.00127169 -0.00131028 -0.00126912 -0.0013073 -0.00122188 -0.00126912 -0.00124635 -0.00128443 -0.00126912 -0.0013073 -0.00128443 -0.00131742 -0.00131028 -0.00133937 -0.0013073 -0.00133789 -0.00133937 -0.00136133 -0.00133789 -0.00136217 -0.0013073 -0.00133789 -0.00131742 -0.00134524 -0.00133789 -0.00136217 -0.00134524 -0.00136809 -0.00124635 -0.00128443 -0.00128417 -0.00131158 -0.00128443 -0.00131742 -0.00131158 -0.00133697 -0.00128417 -0.00131158 -0.00132798 -0.00134567 -0.00131158 -0.00133697 -0.00134567 -0.00136306 -0.00131742 -0.00134524 -0.00133697 -0.00135945 -0.00134524 -0.00136809 -0.00135945 -0.00137849 -0.00133697 -0.00135945 -0.00136306 -0.00137923 -0.00135945 -0.00137849 -0.00137923 -0.00139341 -0.00126393 -0.00128007 -0.00134224 -0.0013511 -0.00128007 -0.0012952 -0.0013511 -0.00135896 -0.00134224 -0.0013511 -0.00142062 -0.00142352 -0.0013511 -0.00135896 -0.00142352 -0.00142546 -0.0012952 -0.001311 -0.00135896 -0.00136687 -0.001311 -0.00132798 -0.00136687 -0.00137561 -0.00135896 -0.00136687 -0.00142546 -0.0014273 -0.00136687 -0.00137561 -0.0014273 -0.00142981 -0.00142062 -0.00142352 -0.00150432 -0.00150277 -0.00142352 -0.00142546 -0.00150277 -0.00150045 -0.00150432 -0.00150277 -0.00159725 -0.00159334 -0.00150277 -0.00150045 -0.00159334 -0.0015889 -0.00142546 -0.0014273 -0.00150045 -0.00149812 -0.0014273 -0.00142981 -0.00149812 -0.00149655 -0.00150045 -0.00149812 -0.0015889 -0.00158469 -0.00149812 -0.00149655 -0.00158469 -0.00158141 -0.00132798 -0.00134567 -0.00137561 -0.00138529 -0.00134567 -0.00136306 -0.00138529 -0.00139553 -0.00137561 -0.00138529 -0.00142981 -0.00143342 -0.00138529 -0.00139553 -0.00143342 -0.00143812 -0.00136306 -0.00137923 -0.00139553 -0.00140572 -0.00137923 -0.00139341 -0.00140572 -0.00141517 -0.00139553 -0.00140572 -0.00143812 -0.00144359 -0.00140572 -0.00141517 -0.00144359 -0.0014493 -0.00142981 -0.00143342 -0.00149655 -0.00149628 -0.00143342 -0.00143812 -0.00149628 -0.0014975 -0.00149655 -0.00149628 -0.00158141 -0.00157958 -0.00149628 -0.0014975 -0.00157958 -0.00157937 -0.00143812 -0.00144359 -0.0014975 -0.00150001 -0.00144359 -0.0014493 -0.00150001 -0.00150334 -0.0014975 -0.00150001 -0.00157937 -0.00158058 -0.00150001 -0.00150334 -0.00158058 -0.00158272 -0.00136133 -0.00137836 -0.00136217 -0.00138114 -0.00137836 -0.00139205 -0.00138114 -0.00139562 -0.00136217 -0.00138114 -0.00136809 -0.00138616 -0.00138114 -0.00139562 -0.00138616 -0.00139973 -0.00139205 -0.00140308 -0.00139562 -0.00140621 -0.00140308 -0.00141139 -0.00140621 -0.0014135 -0.00139562 -0.00140621 -0.00139973 -0.00140926 -0.00140621 -0.0014135 -0.00140926 -0.00141548 -0.00136809 -0.00138616 -0.00137849 -0.00139377 -0.00138616 -0.00139973 -0.00139377 -0.00140523 -0.00137849 -0.00139377 -0.00139341 -0.00140506 -0.00139377 -0.00140523 -0.00140506 -0.0014139 -0.00139973 -0.00140926 -0.00140523 -0.00141316 -0.00140926 -0.00141548 -0.00141316 -0.00141824 -0.00140523 -0.00141316 -0.0014139 -0.00142009 -0.00141316 -0.00141824 -0.00142009 -0.00142411 -0.00141139 -0.00141696 -0.0014135 -0.0014181 -0.00141696 -0.00142019 -0.0014181 -0.00142069 -0.0014135 -0.0014181 -0.00141548 -0.0014192 -0.0014181 -0.00142069 -0.0014192 -0.00142122 -0.00142019 -0.00142178 -0.00142069 -0.0014219 -0.00142178 -0.00142225 -0.0014219 -0.00142224 -0.00142069 -0.0014219 -0.00142122 -0.00142214 -0.0014219 -0.00142224 -0.00142214 -0.0014224 -0.00141548 -0.0014192 -0.00141824 -0.00142125 -0.0014192 -0.00142122 -0.00142125 -0.00142292 -0.00141824 -0.00142125 -0.00142411 -0.00142658 -0.00142125 -0.00142292 -0.00142658 -0.00142803 -0.00142122 -0.00142214 -0.00142292 -0.00142373 -0.00142214 -0.0014224 -0.00142373 -0.00142396 -0.00142292 -0.00142373 -0.00142803 -0.00142878 -0.00142373 -0.00142396 -0.00142878 -0.00142901 -0.00139341 -0.00140506 -0.00141517 -0.00142328 -0.00140506 -0.0014139 -0.00142328 -0.00142968 -0.00141517 -0.00142328 -0.0014493 -0.00145463 -0.00142328 -0.00142968 -0.00145463 -0.00145914 -0.0014139 -0.00142009 -0.00142968 -0.00143432 -0.00142009 -0.00142411 -0.00143432 -0.00143747 -0.00142968 -0.00143432 -0.00145914 -0.00146258 -0.00143432 -0.00143747 -0.00146258 -0.001465 -0.0014493 -0.00145463 -0.00150334 -0.00150687 -0.00145463 -0.00145914 -0.00150687 -0.00151005 -0.00150334 -0.00150687 -0.00158272 -0.00158518 -0.00150687 -0.00151005 -0.00158518 -0.00158743 -0.00145914 -0.00146258 -0.00151005 -0.00151258 -0.00146258 -0.001465 -0.00151258 -0.00151434 -0.00151005 -0.00151258 -0.00158743 -0.00158917 -0.00151258 -0.00151434 -0.00158917 -0.0015903 -0.00142411 -0.00142658 -0.00143747 -0.00143948 -0.00142658 -0.00142803 -0.00143948 -0.0014407 -0.00143747 -0.00143948 -0.001465 -0.00146656 -0.00143948 -0.0014407 -0.00146656 -0.00146745 -0.00142803 -0.00142878 -0.0014407 -0.00144133 -0.00142878 -0.00142901 -0.00144133 -0.00144152 -0.0014407 -0.00144133 -0.00146745 -0.00146787 -0.00144133 -0.00144152 -0.00146787 -0.00146797 -0.001465 -0.00146656 -0.00151434 -0.00151541 -0.00146656 -0.00146745 -0.00151541 -0.00151593 -0.00151434 -0.00151541 -0.0015903 -0.0015909 -0.00151541 -0.00151593 -0.0015909 -0.00159111 -0.00146745 -0.00146787 -0.00151593 -0.00151611 -0.00146787 -0.00146797 -0.00151611 -0.0015161 -0.00151593 -0.00151611 -0.00159111 -0.00159109 -0.00151611 -0.0015161 -0.00159109 -0.001591 -0.00159725 -0.00159334 -0.00170006 -0.001696 -0.00159334 -0.0015889 -0.001696 -0.0016917 -0.00170006 -0.001696 -0.00180949 -0.00180678 -0.001696 -0.0016917 -0.00180678 -0.00180404 -0.0015889 -0.00158469 -0.0016917 -0.00168779 -0.00158469 -0.00158141 -0.00168779 -0.00168487 -0.0016917 -0.00168779 -0.00180404 -0.00180171 -0.00168779 -0.00168487 -0.00180171 -0.00180016 -0.00180949 -0.00180678 -0.00192067 -0.00191955 -0.00180678 -0.00180404 -0.00191955 -0.00191846 -0.00192067 -0.00191955 -0.00203077 -0.00203053 -0.00191955 -0.00191846 -0.00203053 -0.00203031 -0.00180404 -0.00180171 -0.00191846 -0.00191764 -0.00180171 -0.00180016 -0.00191764 -0.00191727 -0.00191846 -0.00191764 -0.00203031 -0.00203021 -0.00191764 -0.00191727 -0.00203021 -0.00203026 -0.00158141 -0.00157958 -0.00168487 -0.00168329 -0.00157958 -0.00157937 -0.00168329 -0.00168309 -0.00168487 -0.00168329 -0.00180016 -0.00179956 -0.00168329 -0.00168309 -0.00179956 -0.00179983 -0.00157937 -0.00158058 -0.00168309 -0.00168403 -0.00158058 -0.00158272 -0.00168403 -0.00168561 -0.00168309 -0.00168403 -0.00179983 -0.00180072 -0.00168403 -0.00168561 -0.00180072 -0.00180186 -0.00180016 -0.00179956 -0.00191727 -0.00191736 -0.00179956 -0.00179983 -0.00191736 -0.00191782 -0.00191727 -0.00191736 -0.00203026 -0.00203046 -0.00191736 -0.00191782 -0.00203046 -0.00203074 -0.00179983 -0.00180072 -0.00191782 -0.00191847 -0.00180072 -0.00180186 -0.00191847 -0.00191911 -0.00191782 -0.00191847 -0.00203074 -0.00203104 -0.00191847 -0.00191911 -0.00203104 -0.0020313 -0.00203077 -0.00203053 -0.00214006 -0.00214002 -0.00203053 -0.00203031 -0.00214002 -0.00213998 -0.00214006 -0.00214002 -0.00224972 -0.00224969 -0.00214002 