# vtk DataFile Version 3.0
#This file was generated by the deal.II library on 2022/11/16 at 21:25:18
ASCII
DATASET UNSTRUCTURED_GRID

POINTS 4096 double
0 0.5 0
0.03125 0.5 0
0 0.53125 0
0.03125 0.53125 0
0.03125 0.5 0
0.0625 0.5 0
0.03125 0.53125 0
0.0625 0.53125 0
0 0.53125 0
0.03125 0.53125 0
0 0.5625 0
0.03125 0.5625 0
0.03125 0.53125 0
0.0625 0.53125 0
0.03125 0.5625 0
0.0625 0.5625 0
0.0625 0.5 0
0.09375 0.5 0
0.0625 0.53125 0
0.09375 0.53125 0
0.09375 0.5 0
0.125 0.5 0
0.09375 0.53125 0
0.125 0.53125 0
0.0625 0.53125 0
0.09375 0.53125 0
0.0625 0.5625 0
0.09375 0.5625 0
0.09375 0.53125 0
0.125 0.53125 0
0.09375 0.5625 0
0.125 0.5625 0
0 0.5625 0
0.03125 0.5625 0
0 0.59375 0
0.03125 0.59375 0
0.03125 0.5625 0
0.0625 0.5625 0
0.03125 0.59375 0
0.0625 0.59375 0
0 0.59375 0
0.03125 0.59375 0
0 0.625 0
0.03125 0.625 0
0.03125 0.59375 0
0.0625 0.59375 0
0.03125 0.625 0
0.0625 0.625 0
0.0625 0.5625 0
0.09375 0.5625 0
0.0625 0.59375 0
0.09375 0.59375 0
0.09375 0.5625 0
0.125 0.5625 0
0.09375 0.59375 0
0.125 0.59375 0
0.0625 0.59375 0
0.09375 0.59375 0
0.0625 0.625 0
0.09375 0.625 0
0.09375 0.59375 0
0.125 0.59375 0
0.09375 0.625 0
0.125 0.625 0
0.125 0.5 0
0.15625 0.5 0
0.125 0.53125 0
0.15625 0.53125 0
0.15625 0.5 0
0.1875 0.5 0
0.15625 0.53125 0
0.1875 0.53125 0
0.125 0.53125 0
0.15625 0.53125 0
0.125 0.5625 0
0.15625 0.5625 0
0.15625 0.53125 0
0.1875 0.53125 0
0.15625 0.5625 0
0.1875 0.5625 0
0.1875 0.5 0
0.21875 0.5 0
0.1875 0.53125 0
0.21875 0.53125 0
0.21875 0.5 0
0.25 0.5 0
0.21875 0.53125 0
0.25 0.53125 0
0.1875 0.53125 0
0.21875 0.53125 0
0.1875 0.5625 0
0.21875 0.5625 0
0.21875 0.53125 0
0.25 0.53125 0
0.21875 0.5625 0
0.25 0.5625 0
0.125 0.5625 0
0.15625 0.5625 0
0.125 0.59375 0
0.15625 0.59375 0
0.15625 0.5625 0
0.1875 0.5625 0
0.15625 0.59375 0
0.1875 0.59375 0
0.125 0.59375 0
0.15625 0.59375 0
0.125 0.625 0
0.15625 0.625 0
0.15625 0.59375 0
0.1875 0.59375 0
0.15625 0.625 0
0.1875 0.625 0
0.1875 0.5625 0
0.21875 0.5625 0
0.1875 0.59375 0
0.21875 0.59375 0
0.21875 0.5625 0
0.25 0.5625 0
0.21875 0.59375 0
0.25 0.59375 0
0.1875 0.59375 0
0.21875 0.59375 0
0.1875 0.625 0
0.21875 0.625 0
0.21875 0.59375 0
0.25 0.59375 0
0.21875 0.625 0
0.25 0.625 0
0 0.625 0
0.03125 0.625 0
0 0.65625 0
0.03125 0.65625 0
0.03125 0.625 0
0.0625 0.625 0
0.03125 0.65625 0
0.0625 0.65625 0
0 0.65625 0
0.03125 0.65625 0
0 0.6875 0
0.03125 0.6875 0
0.03125 0.65625 0
0.0625 0.65625 0
0.03125 0.6875 0
0.0625 0.6875 0
0.0625 0.625 0
0.09375 0.625 0
0.0625 0.65625 0
0.09375 0.65625 0
0.09375 0.625 0
0.125 0.625 0
0.09375 0.65625 0
0.125 0.65625 0
0.0625 0.65625 0
0.09375 0.65625 0
0.0625 0.6875 0
0.09375 0.6875 0
0.09375 0.65625 0
0.125 0.65625 0
0.09375 0.6875 0
0.125 0.6875 0
0 0.6875 0
0.03125 0.6875 0
0 0.71875 0
0.03125 0.71875 0
0.03125 0.6875 0
0.0625 0.6875 0
0.03125 0.71875 0
0.0625 0.71875 0
0 0.71875 0
0.03125 0.71875 0
0 0.75 0
0.03125 0.75 0
0.03125 0.71875 0
0.0625 0.71875 0
0.03125 0.75 0
0.0625 0.75 0
0.0625 0.6875 0
0.09375 0.6875 0
0.0625 0.71875 0
0.09375 0.71875 0
0.09375 0.6875 0
0.125 0.6875 0
0.09375 0.71875 0
0.125 0.71875 0
0.0625 0.71875 0
0.09375 0.71875 0
0.0625 0.75 0
0.09375 0.75 0
0.09375 0.71875 0
0.125 0.71875 0
0.09375 0.75 0
0.125 0.75 0
0.125 0.625 0
0.15625 0.625 0
0.125 0.65625 0
0.15625 0.65625 0
0.15625 0.625 0
0.1875 0.625 0
0.15625 0.65625 0
0.1875 0.65625 0
0.125 0.65625 0
0.15625 0.65625 0
0.125 0.6875 0
0.15625 0.6875 0
0.15625 0.65625 0
0.1875 0.65625 0
0.15625 0.6875 0
0.1875 0.6875 0
0.1875 0.625 0
0.21875 0.625 0
0.1875 0.65625 0
0.21875 0.65625 0
0.21875 0.625 0
0.25 0.625 0
0.21875 0.65625 0
0.25 0.65625 0
0.1875 0.65625 0
0.21875 0.65625 0
0.1875 0.6875 0
0.21875 0.6875 0
0.21875 0.65625 0
0.25 0.65625 0
0.21875 0.6875 0
0.25 0.6875 0
0.125 0.6875 0
0.15625 0.6875 0
0.125 0.71875 0
0.15625 0.71875 0
0.15625 0.6875 0
0.1875 0.6875 0
0.15625 0.71875 0
0.1875 0.71875 0
0.125 0.71875 0
0.15625 0.71875 0
0.125 0.75 0
0.15625 0.75 0
0.15625 0.71875 0
0.1875 0.71875 0
0.15625 0.75 0
0.1875 0.75 0
0.1875 0.6875 0
0.21875 0.6875 0
0.1875 0.71875 0
0.21875 0.71875 0
0.21875 0.6875 0
0.25 0.6875 0
0.21875 0.71875 0
0.25 0.71875 0
0.1875 0.71875 0
0.21875 0.71875 0
0.1875 0.75 0
0.21875 0.75 0
0.21875 0.71875 0
0.25 0.71875 0
0.21875 0.75 0
0.25 0.75 0
0.25 0.5 0
0.28125 0.5 0
0.25 0.53125 0
0.28125 0.53125 0
0.28125 0.5 0
0.3125 0.5 0
0.28125 0.53125 0
0.3125 0.53125 0
0.25 0.53125 0
0.28125 0.53125 0
0.25 0.5625 0
0.28125 0.5625 0
0.28125 0.53125 0
0.3125 0.53125 0
0.28125 0.5625 0
0.3125 0.5625 0
0.3125 0.5 0
0.34375 0.5 0
0.3125 0.53125 0
0.34375 0.53125 0
0.34375 0.5 0
0.375 0.5 0
0.34375 0.53125 0
0.375 0.53125 0
0.3125 0.53125 0
0.34375 0.53125 0
0.3125 0.5625 0
0.34375 0.5625 0
0.34375 0.53125 0
0.375 0.53125 0
0.34375 0.5625 0
0.375 0.5625 0
0.25 0.5625 0
0.28125 0.5625 0
0.25 0.59375 0
0.28125 0.59375 0
0.28125 0.5625 0
0.3125 0.5625 0
0.28125 0.59375 0
0.3125 0.59375 0
0.25 0.59375 0
0.28125 0.59375 0
0.25 0.625 0
0.28125 0.625 0
0.28125 0.59375 0
0.3125 0.59375 0
0.28125 0.625 0
0.3125 0.625 0
0.3125 0.5625 0
0.34375 0.5625 0
0.3125 0.59375 0
0.34375 0.59375 0
0.34375 0.5625 0
0.375 0.5625 0
0.34375 0.59375 0
0.375 0.59375 0
0.3125 0.59375 0
0.34375 0.59375 0
0.3125 0.625 0
0.34375 0.625 0
0.34375 0.59375 0
0.375 0.59375 0
0.34375 0.625 0
0.375 0.625 0
0.375 0.5 0
0.40625 0.5 0
0.375 0.53125 0
0.40625 0.53125 0
0.40625 0.5 0
0.4375 0.5 0
0.40625 0.53125 0
0.4375 0.53125 0
0.375 0.53125 0
0.40625 0.53125 0
0.375 0.5625 0
0.40625 0.5625 0
0.40625 0.53125 0
0.4375 0.53125 0
0.40625 0.5625 0
0.4375 0.5625 0
0.4375 0.5 0
0.46875 0.5 0
0.4375 0.53125 0
0.46875 0.53125 0
0.46875 0.5 0
0.5 0.5 0
0.46875 0.53125 0
0.5 0.53125 0
0.4375 0.53125 0
0.46875 0.53125 0
0.4375 0.5625 0
0.46875 0.5625 0
0.46875 0.53125 0
0.5 0.53125 0
0.46875 0.5625 0
0.5 0.5625 0
0.375 0.5625 0
0.40625 0.5625 0
0.375 0.59375 0
0.40625 0.59375 0
0.40625 0.5625 0
0.4375 0.5625 0
0.40625 0.59375 0
0.4375 0.59375 0
0.375 0.59375 0
0.40625 0.59375 0
0.375 0.625 0
0.40625 0.625 0
0.40625 0.59375 0
0.4375 0.59375 0
0.40625 0.625 0
0.4375 0.625 0
0.4375 0.5625 0
0.46875 0.5625 0
0.4375 0.59375 0
0.46875 0.59375 0
0.46875 0.5625 0
0.5 0.5625 0
0.46875 0.59375 0
0.5 0.59375 0
0.4375 0.59375 0
0.46875 0.59375 0
0.4375 0.625 0
0.46875 0.625 0
0.46875 0.59375 0
0.5 0.59375 0
0.46875 0.625 0
0.5 0.625 0
0.25 0.625 0
0.28125 0.625 0
0.25 0.65625 0
0.28125 0.65625 0
0.28125 0.625 0
0.3125 0.625 0
0.28125 0.65625 0
0.3125 0.65625 0
0.25 0.65625 0
0.28125 0.65625 0
0.25 0.6875 0
0.28125 0.6875 0
0.28125 0.65625 0
0.3125 0.65625 0
0.28125 0.6875 0
0.3125 0.6875 0
0.3125 0.625 0
0.34375 0.625 0
0.3125 0.65625 0
0.34375 0.65625 0
0.34375 0.625 0
0.375 0.625 0
0.34375 0.65625 0
0.375 0.65625 0
0.3125 0.65625 0
0.34375 0.65625 0
0.3125 0.6875 0
0.34375 0.6875 0
0.34375 0.65625 0
0.375 0.65625 0
0.34375 0.6875 0
0.375 0.6875 0
0.25 0.6875 0
0.28125 0.6875 0
0.25 0.71875 0
0.28125 0.71875 0
0.28125 0.6875 0
0.3125 0.6875 0
0.28125 0.71875 0
0.3125 0.71875 0
0.25 0.71875 0
0.28125 0.71875 0
0.25 0.75 0
0.28125 0.75 0
0.28125 0.71875 0
0.3125 0.71875 0
0.28125 0.75 0
0.3125 0.75 0
0.3125 0.6875 0
0.34375 0.6875 0
0.3125 0.71875 0
0.34375 0.71875 0
0.34375 0.6875 0
0.375 0.6875 0
0.34375 0.71875 0
0.375 0.71875 0
0.3125 0.71875 0
0.34375 0.71875 0
0.3125 0.75 0
0.34375 0.75 0
0.34375 0.71875 0
0.375 0.71875 0
0.34375 0.75 0
0.375 0.75 0
0.375 0.625 0
0.40625 0.625 0
0.375 0.65625 0
0.40625 0.65625 0
0.40625 0.625 0
0.4375 0.625 0
0.40625 0.65625 0
0.4375 0.65625 0
0.375 0.65625 0
0.40625 0.65625 0
0.375 0.6875 0
0.40625 0.6875 0
0.40625 0.65625 0
0.4375 0.65625 0
0.40625 0.6875 0
0.4375 0.6875 0
0.4375 0.625 0
0.46875 0.625 0
0.4375 0.65625 0
0.46875 0.65625 0
0.46875 0.625 0
0.5 0.625 0
0.46875 0.65625 0
0.5 0.65625 0
0.4375 0.65625 0
0.46875 0.65625 0
0.4375 0.6875 0
0.46875 0.6875 0
0.46875 0.65625 0
0.5 0.65625 0
0.46875 0.6875 0
0.5 0.6875 0
0.375 0.6875 0
0.40625 0.6875 0
0.375 0.71875 0
0.40625 0.71875 0
0.40625 0.6875 0
0.4375 0.6875 0
0.40625 0.71875 0
0.4375 0.71875 0
0.375 0.71875 0
0.40625 0.71875 0
0.375 0.75 0
0.40625 0.75 0
0.40625 0.71875 0
0.4375 0.71875 0
0.40625 0.75 0
0.4375 0.75 0
0.4375 0.6875 0
0.46875 0.6875 0
0.4375 0.71875 0
0.46875 0.71875 0
0.46875 0.6875 0
0.5 0.6875 0
0.46875 0.71875 0
0.5 0.71875 0
0.4375 0.71875 0
0.46875 0.71875 0
0.4375 0.75 0
0.46875 0.75 0
0.46875 0.71875 0
0.5 0.71875 0
0.46875 0.75 0
0.5 0.75 0
0 0.75 0
0.03125 0.75 0
0 0.78125 0
0.03125 0.78125 0
0.03125 0.75 0
0.0625 0.75 0
0.03125 0.78125 0
0.0625 0.78125 0
0 0.78125 0
0.03125 0.78125 0
0 0.8125 0
0.03125 0.8125 0
0.03125 0.78125 0
0.0625 0.78125 0
0.03125 0.8125 0
0.0625 0.8125 0
0.0625 0.75 0
0.09375 0.75 0
0.0625 0.78125 0
0.09375 0.78125 0
0.09375 0.75 0
0.125 0.75 0
0.09375 0.78125 0
0.125 0.78125 0
0.0625 0.78125 0
0.09375 0.78125 0
0.0625 0.8125 0
0.09375 0.8125 0
0.09375 0.78125 0
0.125 0.78125 0
0.09375 0.8125 0
0.125 0.8125 0
0 0.8125 0
0.03125 0.8125 0
0 0.84375 0
0.03125 0.84375 0
0.03125 0.8125 0
0.0625 0.8125 0
0.03125 0.84375 0
0.0625 0.84375 0
0 0.84375 0
0.03125 0.84375 0
0 0.875 0
0.03125 0.875 0
0.03125 0.84375 0
0.0625 0.84375 0
0.03125 0.875 0
0.0625 0.875 0
0.0625 0.8125 0
0.09375 0.8125 0
0.0625 0.84375 0
0.09375 0.84375 0
0.09375 0.8125 0
0.125 0.8125 0
0.09375 0.84375 0
0.125 0.84375 0
0.0625 0.84375 0
0.09375 0.84375 0
0.0625 0.875 0
0.09375 0.875 0
0.09375 0.84375 0
0.125 0.84375 0
0.09375 0.875 0
0.125 0.875 0
0.125 0.75 0
0.15625 0.75 0
0.125 0.78125 0
0.15625 0.78125 0
0.15625 0.75 0
0.1875 0.75 0
0.15625 0.78125 0
0.1875 0.78125 0
0.125 0.78125 0
0.15625 0.78125 0
0.125 0.8125 0
0.15625 0.8125 0
0.15625 0.78125 0
0.1875 0.78125 0
0.15625 0.8125 0
0.1875 0.8125 0
0.1875 0.75 0
0.21875 0.75 0
0.1875 0.78125 0
0.21875 0.78125 0
0.21875 0.75 0
0.25 0.75 0
0.21875 0.78125 0
0.25 0.78125 0
0.1875 0.78125 0
0.21875 0.78125 0
0.1875 0.8125 0
0.21875 0.8125 0
0.21875 0.78125 0
0.25 0.78125 0
0.21875 0.8125 0
0.25 0.8125 0
0.125 0.8125 0
0.15625 0.8125 0
0.125 0.84375 0
0.15625 0.84375 0
0.15625 0.8125 0
[...]
POINT_DATA 4096
SCALARS x_dis double 1
LOOKUP_TABLE default
4.35705e-07 4.35739e-07 -6.26331e-07 -6.26271e-07 4.35739e-07 4.35839e-07 -6.26271e-07 -6.26099e-07 -6.26331e-07 -6.26271e-07 -1.83415e-06 -1.83405e-06 -6.26271e-07 -6.26099e-07 -1.83405e-06 -1.83376e-06 4.35839e-07 4.35992e-07 -6.26099e-07 -6.25834e-07 4.35992e-07 4.3618e-07 -6.25834e-07 -6.25506e-07 -6.26099e-07 -6.25834e-07 -1.83376e-06 -1.83333e-06 -6.25834e-07 -6.25506e-07 -1.83333e-06 -1.83279e-06 -1.83415e-06 -1.83405e-06 3.52102e-06 3.52118e-06 -1.83405e-06 -1.83376e-06 3.52118e-06 3.52165e-06 3.52102e-06 3.52118e-06 1.00135e-05 1.00137e-05 3.52118e-06 3.52165e-06 1.00137e-05 1.00145e-05 -1.83376e-06 -1.83333e-06 3.52165e-06 3.52235e-06 -1.83333e-06 -1.83279e-06 3.52235e-06 3.52319e-06 3.52165e-06 3.52235e-06 1.00145e-05 1.00155e-05 3.52235e-06 3.52319e-06 1.00155e-05 1.00168e-05 4.3618e-07 4.36386e-07 -6.25506e-07 -6.25147e-07 4.36386e-07 4.36588e-07 -6.25147e-07 -6.24786e-07 -6.25506e-07 -6.25147e-07 -1.83279e-06 -1.83221e-06 -6.25147e-07 -6.24786e-07 -1.83221e-06 -1.83162e-06 4.36588e-07 4.36773e-07 -6.24786e-07 -6.24451e-07 4.36773e-07 4.36927e-07 -6.24451e-07 -6.2417e-07 -6.24786e-07 -6.24451e-07 -1.83162e-06 -1.83108e-06 -6.24451e-07 -6.2417e-07 -1.83108e-06 -1.83061e-06 -1.83279e-06 -1.83221e-06 3.52319e-06 3.52409e-06 -1.83221e-06 -1.83162e-06 3.52409e-06 3.52499e-06 3.52319e-06 3.52409e-06 1.00168e-05 1.00182e-05 3.52409e-06 3.52499e-06 1.00182e-05 1.00195e-05 -1.83162e-06 -1.83108e-06 3.52499e-06 3.52583e-06 -1.83108e-06 -1.83061e-06 3.52583e-06 3.52655e-06 3.52499e-06 3.52583e-06 1.00195e-05 1.00207e-05 3.52583e-06 3.52655e-06 1.00207e-05 1.00218e-05 1.00135e-05 1.00137e-05 -5.56363e-06 -5.56322e-06 1.00137e-05 1.00145e-05 -5.56322e-06 -5.56211e-06 -5.56363e-06 -5.56322e-06 -5.82623e-05 -5.82615e-05 -5.56322e-06 -5.56211e-06 -5.82615e-05 -5.82598e-05 1.00145e-05 1.00155e-05 -5.56211e-06 -5.56053e-06 1.00155e-05 1.00168e-05 -5.56053e-06 -5.55867e-06 -5.56211e-06 -5.56053e-06 -5.82598e-05 -5.82575e-05 -5.56053e-06 -5.55867e-06 -5.82575e-05 -5.82549e-05 -5.82623e-05 -5.82615e-05 -0.000142163 -0.000142161 -5.82615e-05 -5.82598e-05 -0.000142161 -0.000142159 -0.000142163 -0.000142161 -0.000243199 -0.000243196 -0.000142161 -0.000142159 -0.000243196 -0.000243192 -5.82598e-05 -5.82575e-05 -0.000142159 -0.000142156 -5.82575e-05 -5.82549e-05 -0.000142156 -0.000142152 -0.000142159 -0.000142156 -0.000243192 -0.000243187 -0.000142156 -0.000142152 -0.000243187 -0.000243183 1.00168e-05 1.00182e-05 -5.55867e-06 -5.55673e-06 1.00182e-05 1.00195e-05 -5.55673e-06 -5.55485e-06 -5.55867e-06 -5.55673e-06 -5.82549e-05 -5.82523e-05 -5.55673e-06 -5.55485e-06 -5.82523e-05 -5.82497e-05 1.00195e-05 1.00207e-05 -5.55485e-06 -5.55315e-06 1.00207e-05 1.00218e-05 -5.55315e-06 -5.55168e-06 -5.55485e-06 -5.55315e-06 -5.82497e-05 -5.82474e-05 -5.55315e-06 -5.55168e-06 -5.82474e-05 -5.82455e-05 -5.82549e-05 -5.82523e-05 -0.000142152 -0.000142149 -5.82523e-05 -5.82497e-05 -0.000142149 -0.000142145 -0.000142152 -0.000142149 -0.000243183 -0.000243178 -0.000142149 -0.000142145 -0.000243178 -0.000243174 -5.82497e-05 -5.82474e-05 -0.000142145 -0.000142142 -5.82474e-05 -5.82455e-05 -0.000142142 -0.00014214 -0.000142145 -0.000142142 -0.000243174 -0.000243171 -0.000142142 -0.00014214 -0.000243171 -0.000243168 4.36927e-07 4.37045e-07 -6.2417e-07 -6.23967e-07 4.37045e-07 4.37127e-07 -6.23967e-07 -6.23803e-07 -6.2417e-07 -6.23967e-07 -1.83061e-06 -1.83025e-06 -6.23967e-07 -6.23803e-07 -1.83025e-06 -1.82995e-06 4.37127e-07 4.37194e-07 -6.23803e-07 -6.23455e-07 4.37194e-07 4.37255e-07 -6.23455e-07 -6.22972e-07 -6.23803e-07 -6.23455e-07 -1.82995e-06 -1.82952e-06 -6.23455e-07 -6.22972e-07 -1.82952e-06 -1.829e-06 -1.83061e-06 -1.83025e-06 3.52655e-06 3.52713e-06 -1.83025e-06 -1.82995e-06 3.52713e-06 3.52761e-06 3.52655e-06 3.52713e-06 1.00218e-05 1.00226e-05 3.52713e-06 3.52761e-06 1.00226e-05 1.00233e-05 -1.82995e-06 -1.82952e-06 3.52761e-06 3.52811e-06 -1.82952e-06 -1.829e-06 3.52811e-06 3.52855e-06 3.52761e-06 3.52811e-06 1.00233e-05 1.00239e-05 3.52811e-06 3.52855e-06 1.00239e-05 1.00245e-05 4.37255e-07 4.37249e-07 -6.22972e-07 -6.24217e-07 4.37249e-07 4.37208e-07 -6.24217e-07 -6.29243e-07 -6.22972e-07 -6.24217e-07 -1.829e-06 -1.82955e-06 -6.24217e-07 -6.29243e-07 -1.82955e-06 -1.83193e-06 4.37208e-07 4.37319e-07 -6.29243e-07 -6.31164e-07 4.37319e-07 4.37347e-07 -6.31164e-07 -5.95534e-07 -6.29243e-07 -6.31164e-07 -1.83193e-06 -1.83412e-06 -6.31164e-07 -5.95534e-07 -1.83412e-06 -1.85429e-06 -1.829e-06 -1.82955e-06 3.52855e-06 3.52841e-06 -1.82955e-06 -1.83193e-06 3.52841e-06 3.52815e-06 3.52855e-06 3.52841e-06 1.00245e-05 1.00248e-05 3.52841e-06 3.52815e-06 1.00248e-05 1.00243e-05 -1.83193e-06 -1.83412e-06 3.52815e-06 3.52838e-06 -1.83412e-06 -1.85429e-06 3.52838e-06 3.53235e-06 3.52815e-06 3.52838e-06 1.00243e-05 1.00241e-05 3.52838e-06 3.53235e-06 1.00241e-05 1.00264e-05 1.00218e-05 1.00226e-05 -5.55168e-06 -5.55047e-06 1.00226e-05 1.00233e-05 -5.55047e-06 -5.54952e-06 -5.55168e-06 -5.55047e-06 -5.82455e-05 -5.82438e-05 -5.55047e-06 -5.54952e-06 -5.82438e-05 -5.82426e-05 1.00233e-05 1.00239e-05 -5.54952e-06 -5.5488e-06 1.00239e-05 1.00245e-05 -5.5488e-06 -5.54817e-06 -5.54952e-06 -5.5488e-06 -5.82426e-05 -5.82416e-05 -5.5488e-06 -5.54817e-06 -5.82416e-05 -5.82409e-05 -5.82455e-05 -5.82438e-05 -0.00014214 -0.000142138 -5.82438e-05 -5.82426e-05 -0.000142138 -0.000142136 -0.00014214 -0.000142138 -0.000243168 -0.000243165 -0.000142138 -0.000142136 -0.000243165 -0.000243163 -5.82426e-05 -5.82416e-05 -0.000142136 -0.000142135 -5.82416e-05 -5.82409e-05 -0.000142135 -0.000142134 -0.000142136 -0.000142135 -0.000243163 -0.000243162 -0.000142135 -0.000142134 -0.000243162 -0.000243161 1.00245e-05 1.00248e-05 -5.54817e-06 -5.54752e-06 1.00248e-05 1.00243e-05 -5.54752e-06 -5.54704e-06 -5.54817e-06 -5.54752e-06 -5.82409e-05 -5.82404e-05 -5.54752e-06 -5.54704e-06 -5.82404e-05 -5.82399e-05 1.00243e-05 1.00241e-05 -5.54704e-06 -5.54731e-06 1.00241e-05 1.00264e-05 -5.54731e-06 -5.5486e-06 -5.54704e-06 -5.54731e-06 -5.82399e-05 -5.82394e-05 -5.54731e-06 -5.5486e-06 -5.82394e-05 -5.82392e-05 -5.82409e-05 -5.82404e-05 -0.000142134 -0.000142133 -5.82404e-05 -5.82399e-05 -0.000142133 -0.000142133 -0.000142134 -0.000142133 -0.000243161 -0.00024316 -0.000142133 -0.000142133 -0.00024316 -0.000243159 -5.82399e-05 -5.82394e-05 -0.000142133 -0.000142133 -5.82394e-05 -5.82392e-05 -0.000142133 -0.000142132 -0.000142133 -0.000142133 -0.000243159 -0.000243159 -0.000142133 -0.000142132 -0.000243159 -0.000243159 -0.000243199 -0.000243196 -0.000350791 -0.000350786 -0.000243196 -0.000243192 -0.000350786 -0.00035078 -0.000350791 -0.000350786 -0.00046028 -0.000460273 -0.000350786 -0.00035078 -0.000460273 -0.000460265 -0.000243192 -0.000243187 -0.00035078 -0.000350775 -0.000243187 -0.000243183 -0.000350775 -0.000350769 -0.00035078 -0.000350775 -0.000460265 -0.000460258 -0.000350775 -0.000350769 -0.000460258 -0.000460252 -0.00046028 -0.000460273 -0.000570162 -0.000570152 -0.000460273 -0.000460265 -0.000570152 -0.000570143 -0.000570162 -0.000570152 -0.00068012 -0.000680108 -0.000570152 -0.000570143 -0.000680108 -0.000680097 -0.000460265 -0.000460258 -0.000570143 -0.000570135 -0.000460258 -0.000460252 -0.000570135 -0.000570127 -0.000570143 -0.000570135 -0.000680097 -0.000680088 -0.000570135 -0.000570127 -0.000680088 -0.00068008 -0.000243183 -0.000243178 -0.000350769 -0.000350764 -0.000243178 -0.000243174 -0.000350764 -0.000350759 -0.000350769 -0.000350764 -0.000460252 -0.000460246 -0.000350764 -0.000350759 -0.000460246 -0.000460241 -0.000243174 -0.000243171 -0.000350759 -0.000350755 -0.000243171 -0.000243168 -0.000350755 -0.000350752 -0.000350759 -0.000350755 -0.000460241 -0.000460236 -0.000350755 -0.000350752 -0.000460236 -0.000460232 -0.000460252 -0.000460246 -0.000570127 -0.000570121 -0.000460246 -0.000460241 -0.000570121 -0.000570116 -0.000570127 -0.000570121 -0.00068008 -0.000680074 -0.000570121 -0.000570116 -0.000680074 -0.000680068 -0.000460241 -0.000460236 -0.000570116 -0.000570111 -0.000460236 -0.000460232 -0.000570111 -0.000570107 -0.000570116 -0.000570111 -0.000680068 -0.000680064 -0.000570111 -0.000570107 -0.000680064 -0.000680061 -0.00068012 -0.000680108 -0.000790091 -0.000790076 -0.000680108 -0.000680097 -0.000790076 -0.000790064 -0.000790091 -0.000790076 -0.000900067 -0.00090005 -0.000790076 -0.000790064 -0.00090005 -0.000900037 -0.000680097 -0.000680088 -0.000790064 -0.000790054 -0.000680088 -0.00068008 -0.000790054 -0.000790046 -0.000790064 -0.000790054 -0.000900037 -0.000900028 -0.000790054 -0.000790046 -0.000900028 -0.000900022 -0.000900067 -0.00090005 -0.00101005 -0.00101003 -0.00090005 -0.000900037 -0.00101003 -0.00101002 -0.00101005 -0.00101003 -0.00112 -0.00112 -0.00101003 -0.00101002 -0.00112 -0.00112 -0.000900037 -0.000900028 -0.00101002 -0.00101001 -0.000900028 -0.000900022 -0.00101001 -0.00101001 -0.00101002 -0.00101001 -0.00112 -0.00112 -0.00101001 -0.00101001 -0.00112 -0.00112 -0.00068008 -0.000680074 -0.000790046 -0.00079004 -0.000680074 -0.000680068 -0.00079004 -0.000790036 -0.000790046 -0.00079004 -0.000900022 -0.000900018 -0.00079004 -0.000790036 -0.000900018 -0.000900014 -0.000680068 -0.000680064 -0.000790036 -0.000790032 -0.000680064 -0.000680061 -0.000790032 -0.000790029 -0.000790036 -0.000790032 -0.000900014 -0.000900012 -0.000790032 -0.000790029 -0.000900012 -0.00090001 -0.000900022 -0.000900018 -0.00101001 -0.00101 -0.000900018 -0.000900014 -0.00101 -0.00101 -0.00101001 -0.00101 -0.00112 -0.00112 -0.00101 -0.00101 -0.00112 -0.00112 -0.000900014 -0.000900012 -0.00101 -0.00101 -0.000900012 -0.00090001 -0.00101 -0.00101 -0.00101 -0.00101 -0.00112 -0.00112 -0.00101 -0.00101 -0.00112 -0.00112 -0.000243168 -0.000243165 -0.000350752 -0.000350749 -0.000243165 -0.000243163 -0.000350749 -0.000350747 -0.000350752 -0.000350749 -0.000460232 -0.000460229 -0.000350749 -0.000350747 -0.000460229 -0.000460227 -0.000243163 -0.000243162 -0.000350747 -0.000350745 -0.000243162 -0.000243161 -0.000350745 -0.000350743 -0.000350747 -0.000350745 -0.000460227 -0.000460225 -0.000350745 -0.000350743 -0.000460225 -0.000460223 -0.000460232 -0.000460229 -0.000570107 -0.000570104 -0.000460229 -0.000460227 -0.000570104 -0.000570102 -0.000570107 -0.000570104 -0.000680061 -0.000680058 -0.000570104 -0.000570102 -0.000680058 -0.000680056 -0.000460227 -0.000460225 -0.000570102 -0.0005701 -0.000460225 -0.000460223 -0.0005701 -0.000570098 -0.000570102 -0.0005701 -0.000680056 -0.000680054 -0.0005701 -0.000570098 -0.000680054 -0.000680052 -0.000243161 -0.00024316 -0.000350743 -0.000350743 -0.00024316 -0.000243159 -0.000350743 -0.000350742 -0.000350743 -0.000350743 -0.000460223 -0.000460222 -0.000350743 -0.000350742 -0.000460222 -0.000460222 -0.000243159 -0.000243159 -0.000350742 -0.000350741 -0.000243159 -0.000243159 -0.000350741 -0.000350741 -0.000350742 -0.000350741 -0.000460222 -0.000460221 -0.000350741 -0.000350741 -0.000460221 -0.000460221 -0.000460223 -0.000460222 -0.000570098 -0.000570097 -0.000460222 -0.000460222 -0.000570097 -0.000570096 -0.000570098 -0.000570097 -0.000680052 -0.000680051 -0.000570097 -0.000570096 -0.000680051 -0.00068005 -0.000460222 -0.000460221 -0.000570096 -0.000570096 -0.000460221 -0.000460221 -0.000570096 -0.000570095 -0.000570096 -0.000570096 -0.00068005 -0.00068005 -0.000570096 -0.000570095 -0.00068005 -0.000680049 -0.000680061 -0.000680058 -0.000790029 -0.000790027 -0.000680058 -0.000680056 -0.000790027 -0.000790025 -0.000790029 -0.000790027 -0.00090001 -0.000900008 -0.000790027 -0.000790025 -0.000900008 -0.000900007 -0.000680056 -0.000680054 -0.000790025 -0.000790024 -0.000680054 -0.000680052 -0.000790024 -0.000790022 -0.000790025 -0.000790024 -0.000900007 -0.000900006 -0.000790024 -0.000790022 -0.000900006 -0.000900005 -0.00090001 -0.000900008 -0.00101 -0.00101 -0.000900008 -0.000900007 -0.00101 -0.00101 -0.00101 -0.00101 -0.00112 -0.00112 -0.00101 -0.00101 -0.00112 -0.00112 -0.000900007 -0.000900006 -0.00101 -0.00101 -0.000900006 -0.000900005 -0.00101 -0.00101 -0.00101 -0.00101 -0.00112 -0.00112 -0.00101 -0.00101 -0.00112 -0.00112 -0.000680052 -0.000680051 -0.000790022 -0.000790021 -0.000680051 -0.00068005 -0.000790021 -0.000790021 -0.000790022 -0.000790021 -0.000900005 -0.000900004 -0.000790021 -0.000790021 -0.000900004 -0.000900003 -0.00068005 -0.00068005 -0.000790021 -0.00079002 -0.00068005 -0.000680049 -0.00079002 -0.00079002 -0.000790021 -0.00079002 -0.000900003 -0.000900003 -0.00079002 -0.00079002 -0.000900003 -0.000900002 -0.000900005 -0.000900004 -0.00101 -0.00101 -0.000900004 -0.000900003 -0.00101 -0.00101 -0.00101 -0.00101 -0.00112 -0.00112 -0.00101 -0.00101 -0.00112 -0.00112 -0.000900003 -0.000900003 -0.00101 -0.00101 -0.000900003 -0.000900002 -0.00101 -0.00101 -0.00101 -0.00101 -0.00112 -0.00112 -0.00101 -0.00101 -0.00112 -0.00112 4.37347e-07 7.47802e-07 -5.95534e-07 -5.8902e-07 7.47802e-07 8.91331e-07 -5.8902e-07 -5.79898e-07 -5.95534e-07 -5.8902e-07 -1.85429e-06 -1.88462e-06 -5.8902e-07 -5.79898e-07 -1.88462e-06 -1.90507e-06 8.91331e-07 8.97517e-07 -5.79898e-07 -5.89523e-07 8.97517e-07 8.78563e-07 -5.89523e-07 -6.04392e-07 -5.79898e-07 -5.89523e-07 -1.90507e-06 -1.90803e-06 -5.89523e-07 -6.04392e-07 -1.90803e-06 -1.90945e-06 -1.85429e-06 -1.88462e-06 3.53235e-06 3.5402e-06 -1.88462e-06 -1.90507e-06 3.5402e-06 3.54879e-06 3.53235e-06 3.5402e-06 1.00264e-05 1.00305e-05 3.5402e-06 3.54879e-06 1.00305e-05 1.00321e-05 -1.90507e-06 -1.90803e-06 3.54879e-06 3.55197e-06 -1.90803e-06 -1.90945e-06 3.55197e-06 3.55122e-06 3.54879e-06 3.55197e-06 1.00321e-05 1.00306e-05 3.55197e-06 3.55122e-06 1.00306e-05 1.00293e-05 8.78563e-07 8.71476e-07 -6.04392e-07 -6.08418e-07 8.71476e-07 8.72874e-07 -6.08418e-07 -6.05975e-07 -6.04392e-07 -6.08418e-07 -1.90945e-06 -1.91013e-06 -6.08418e-07 -6.05975e-07 -1.91013e-06 -1.90915e-06 8.72874e-07 8.75146e-07 -6.05975e-07 -6.04403e-07 8.75146e-07 8.75627e-07 -6.04403e-07 -6.04338e-07 -6.05975e-07 -6.04403e-07 -1.90915e-06 -1.90829e-06 -6.04403e-07 -6.04338e-07 -1.90829e-06 -1.90792e-06 -1.90945e-06 -1.91013e-06 3.55122e-06 3.55056e-06 -1.91013e-06 -1.90915e-06 3.55056e-06 3.55124e-06 3.55122e-06 3.55056e-06 1.00293e-05 1.00299e-05 3.55056e-06 3.55124e-06 1.00299e-05 1.0031e-05 -1.90915e-06 -1.90829e-06 3.55124e-06 3.55214e-06 -1.90829e-06 -1.90792e-06 3.55214e-06 3.55278e-06 3.55124e-06 3.55214e-06 1.0031e-05 1.00319e-05 3.55214e-06 3.55278e-06 1.00319e-05 1.00327e-05 1.00264e-05 1.00305e-05 -5.5486e-06 -5.55068e-06 1.00305e-05 1.00321e-05 -5.55068e-06 -5.55259e-06 -5.5486e-06 -5.55068e-06 -5.82392e-05 -5.82391e-05 -5.55068e-06 -5.55259e-06 -5.82391e-05 -5.82387e-05 1.00321e-05 1.00306e-05 -5.55259e-06 -5.55313e-06 1.00306e-05 1.00293e-05 -5.55313e-06 -5.55225e-06 -5.55259e-06 -5.55313e-06 -5.82387e-05 -5.82378e-05 -5.55313e-06 -5.55225e-06 -5.82378e-05 -5.8237e-05 -5.82392e-05 -5.82391e-05 -0.000142132 -0.000142132 -5.82391e-05 -5.82387e-05 -0.000142132 -0.000142132 -0.000142132 -0.000142132 -0.000243159 -0.000243159 -0.000142132 -0.000142132 -0.000243159 -0.000243158 -5.82387e-05 -5.82378e-05 -0.000142132 -0.000142131 -5.82378e-05 -5.8237e-05 -0.000142131 -0.000142131 -0.000142132 -0.000142131 -0.000243158 -0.000243158 -0.000142131 -0.000142131 -0.000243158 -0.000243157 1.00293e-05 1.00299e-05 -5.55225e-06 -5.55108e-06 1.00299e-05 1.0031e-05 -5.55108e-06 -5.5502e-06 -5.55225e-06 -5.55108e-06 -5.8237e-05 -5.82363e-05 -5.55108e-06 -5.5502e-06 -5.82363e-05 -5.82354e-05 1.0031e-05 1.00319e-05 -5.5502e-06 -5.54934e-06 1.00319e-05 1.00327e-05 -5.54934e-06 -5.54819e-06 -5.5502e-06 -5.54934e-06 -5.82354e-05 -5.82342e-05 -5.54934e-06 -5.54819e-06 -5.82342e-05 -5.82326e-05 -5.8237e-05 -5.82363e-05 -0.000142131 -0.00014213 -5.82363e-05 -5.82354e-05 -0.00014213 -0.000142129 -0.000142131 -0.00014213 -0.000243157 -0.000243156 -0.00014213 -0.000142129 -0.000243156 -0.000243154 -5.82354e-05 -5.82342e-05 -0.000142129 -0.000142127 -5.82342e-05 -5.82326e-05 -0.000142127 -0.000142125 -0.000142129 -0.000142127 -0.000243154 -0.000243152 -0.000142127 -0.000142125 -0.000243152 -0.00024315 8.75627e-07 8.75529e-07 -6.04338e-07 -6.04351e-07 8.75529e-07 8.75816e-07 -6.04351e-07 -6.04056e-07 -6.04338e-07 -6.04351e-07 -1.90792e-06 -1.90759e-06 -6.04351e-07 -6.04056e-07 -1.90759e-06 -1.90713e-06 8.75816e-07 8.76315e-07 -6.04056e-07 -6.03656e-07 8.76315e-07 8.7678e-07 -6.03656e-07 -6.03288e-07 -6.04056e-07 -6.03656e-07 -1.90713e-06 -1.90657e-06 -6.03656e-07 -6.03288e-07 -1.90657e-06 -1.90603e-06 -1.90792e-06 -1.90759e-06 3.55278e-06 3.5534e-06 -1.90759e-06 -1.90713e-06 3.5534e-06 3.55417e-06 3.55278e-06 3.5534e-06 1.00327e-05 1.00337e-05 3.5534e-06 3.55417e-06 1.00337e-05 1.00349e-05 -1.90713e-06 -1.90657e-06 3.55417e-06 3.55507e-06 -1.90657e-06 -1.90603e-06 3.55507e-06 3.55597e-06 3.55417e-06 3.55507e-06 1.00349e-05 1.00362e-05 3.55507e-06 3.55597e-06 1.00362e-05 1.00376e-05 8.7678e-07 8.77177e-07 -6.03288e-07 -6.02966e-07 8.77177e-07 8.77502e-07 -6.02966e-07 -6.02702e-07 -6.03288e-07 -6.02966e-07 -1.90603e-06 -1.90554e-06 -6.02966e-07 -6.02702e-07 -1.90554e-06 -1.90514e-06 8.77502e-07 8.77718e-07 -6.02702e-07 -6.02526e-07 8.77718e-07 8.77794e-07 -6.02526e-07 -6.02465e-07 -6.02702e-07 -6.02526e-07 -1.90514e-06 -1.90488e-06 -6.02526e-07 -6.02465e-07 -1.90488e-06 -1.90478e-06 -1.90603e-06 -1.90554e-06 3.55597e-06 3.55679e-06 -1.90554e-06 -1.90514e-06 3.55679e-06 3.55746e-06 3.55597e-06 3.55679e-06 1.00376e-05 1.00388e-05 3.55679e-06 3.55746e-06 1.00388e-05 1.00399e-05 -1.90514e-06 -1.90488e-06 3.55746e-06 3.55791e-06 -1.90488e-06 -1.90478e-06 3.55791e-06 3.55807e-06 3.55746e-06 3.55791e-06 1.00399e-05 1.00406e-05 3.55791e-06 3.55807e-06 1.00406e-05 1.00409e-05 1.00327e-05 1.00337e-05 -5.54819e-06 -5.54673e-06 1.00337e-05 1.00349e-05 -5.54673e-06 -5.54502e-06 -5.54819e-06 -5.54673e-06 -5.82326e-05 -5.82306e-05 -5.54673e-06 -5.54502e-06 -5.82306e-05 -5.82283e-05 1.00349e-05 1.00362e-05 -5.54502e-06 -5.54314e-06 1.00362e-05 1.00376e-05 -5.54314e-06 -5.54119e-06 -5.54502e-06 -5.54314e-06 -5.82283e-05 -5.82258e-05 -5.54314e-06 -5.54119e-06 -5.82258e-05 -5.82231e-05 -5.82326e-05 -5.82306e-05 -0.000142125 -0.000142122 -5.82306e-05 -5.82283e-05 -0.000142122 -0.000142119 -0.000142125 -0.000142122 -0.00024315 -0.000243147 -0.000142122 -0.000142119 -0.000243147 -0.000243143 -5.82283e-05 -5.82258e-05 -0.000142119 -0.000142116 -5.82258e-05 -5.82231e-05 -0.000142116 -0.000142113 -0.000142119 -0.000142116 -0.000243143 -0.000243139 -0.000142116 -0.000142113 -0.000243139 -0.000243135 1.00376e-05 1.00388e-05 -5.54119e-06 -5.53934e-06 1.00388e-05 1.00399e-05 -5.53934e-06 -5.53775e-06 -5.54119e-06 -5.53934e-06 -5.82231e-05 -5.82205e-05 -5.53934e-06 -5.53775e-06 -5.82205e-05 -5.82182e-05 1.00399e-05 1.00406e-05 -5.53775e-06 -5.53664e-06 1.00406e-05 1.00409e-05 -5.53664e-06 -5.53624e-06 -5.53775e-06 -5.53664e-06 -5.82182e-05 -5.82165e-05 -5.53664e-06 -5.53624e-06 -5.82165e-05 -5.82157e-05 -5.82231e-05 -5.82205e-05 -0.000142113 -0.000142109 -5.82205e-05 -5.82182e-05 -0.000142109 -0.000142106 -0.000142113 -0.000142109 -0.000243135 -0.00024313 -0.000142109 -0.000142106 -0.00024313 -0.000243126 -5.82182e-05 -5.82165e-05 -0.000142106 -0.000142103 -5.82165e-05 -5.82157e-05 -0.000142103 -0.000142101 -0.000142106 -0.000142103 -0.000243126 -0.000243122 -0.000142103 -0.000142101 -0.000243122 -0.000243119 -0.000243159 -0.000243159 -0.000350741 -0.000350741 -0.000243159 -0.000243158 -0.000350741 -0.00035074 -0.000350741 -0.000350741 -0.000460221 -0.00046022 -0.000350741 -0.00035074 -0.00046022 -0.00046022 -0.000243158 -0.000243158 -0.00035074 -0.00035074 -0.000243158 -0.000243157 -0.00035074 -0.000350739 -0.00035074 -0.00035074 -0.00046022 -0.000460219 -0.00035074 -0.000350739 -0.000460219 -0.000460218 -0.000460221 -0.00046022 -0.000570095 -0.000570095 -0.00046022 -0.00046022 -0.000570095 -0.000570094 -0.000570095 -0.000570095 -0.000680049 -0.000680049 -0.000570095 -0.000570094 -0.000680049 -0.000680048 -0.00046022 -0.000460219 -0.000570094 -0.000570094 -0.000460219 -0.000460218 -0.000570094 -0.000570092 -0.000570094 -0.0005