# vtk DataFile Version 3.0
#This file was generated by the deal.II library on 2022/11/16 at 21:27:43
ASCII
DATASET UNSTRUCTURED_GRID

POINTS 4096 double
0 0.5 0
0.03125 0.5 0
0 0.53125 0
0.03125 0.53125 0
0.03125 0.5 0
0.0625 0.5 0
0.03125 0.53125 0
0.0625 0.53125 0
0 0.53125 0
0.03125 0.53125 0
0 0.5625 0
0.03125 0.5625 0
0.03125 0.53125 0
0.0625 0.53125 0
0.03125 0.5625 0
0.0625 0.5625 0
0.0625 0.5 0
0.09375 0.5 0
0.0625 0.53125 0
0.09375 0.53125 0
0.09375 0.5 0
0.125 0.5 0
0.09375 0.53125 0
0.125 0.53125 0
0.0625 0.53125 0
0.09375 0.53125 0
0.0625 0.5625 0
0.09375 0.5625 0
0.09375 0.53125 0
0.125 0.53125 0
0.09375 0.5625 0
0.125 0.5625 0
0 0.5625 0
0.03125 0.5625 0
0 0.59375 0
0.03125 0.59375 0
0.03125 0.5625 0
0.0625 0.5625 0
0.03125 0.59375 0
0.0625 0.59375 0
0 0.59375 0
0.03125 0.59375 0
0 0.625 0
0.03125 0.625 0
0.03125 0.59375 0
0.0625 0.59375 0
0.03125 0.625 0
0.0625 0.625 0
0.0625 0.5625 0
0.09375 0.5625 0
0.0625 0.59375 0
0.09375 0.59375 0
0.09375 0.5625 0
0.125 0.5625 0
0.09375 0.59375 0
0.125 0.59375 0
0.0625 0.59375 0
0.09375 0.59375 0
0.0625 0.625 0
0.09375 0.625 0
0.09375 0.59375 0
0.125 0.59375 0
0.09375 0.625 0
0.125 0.625 0
0.125 0.5 0
0.15625 0.5 0
0.125 0.53125 0
0.15625 0.53125 0
0.15625 0.5 0
0.1875 0.5 0
0.15625 0.53125 0
0.1875 0.53125 0
0.125 0.53125 0
0.15625 0.53125 0
0.125 0.5625 0
0.15625 0.5625 0
0.15625 0.53125 0
0.1875 0.53125 0
0.15625 0.5625 0
0.1875 0.5625 0
0.1875 0.5 0
0.21875 0.5 0
0.1875 0.53125 0
0.21875 0.53125 0
0.21875 0.5 0
0.25 0.5 0
0.21875 0.53125 0
0.25 0.53125 0
0.1875 0.53125 0
0.21875 0.53125 0
0.1875 0.5625 0
0.21875 0.5625 0
0.21875 0.53125 0
0.25 0.53125 0
0.21875 0.5625 0
0.25 0.5625 0
0.125 0.5625 0
0.15625 0.5625 0
0.125 0.59375 0
0.15625 0.59375 0
0.15625 0.5625 0
0.1875 0.5625 0
0.15625 0.59375 0
0.1875 0.59375 0
0.125 0.59375 0
0.15625 0.59375 0
0.125 0.625 0
0.15625 0.625 0
0.15625 0.59375 0
0.1875 0.59375 0
0.15625 0.625 0
0.1875 0.625 0
0.1875 0.5625 0
0.21875 0.5625 0
0.1875 0.59375 0
0.21875 0.59375 0
0.21875 0.5625 0
0.25 0.5625 0
0.21875 0.59375 0
0.25 0.59375 0
0.1875 0.59375 0
0.21875 0.59375 0
0.1875 0.625 0
0.21875 0.625 0
0.21875 0.59375 0
0.25 0.59375 0
0.21875 0.625 0
0.25 0.625 0
0 0.625 0
0.03125 0.625 0
0 0.65625 0
0.03125 0.65625 0
0.03125 0.625 0
0.0625 0.625 0
0.03125 0.65625 0
0.0625 0.65625 0
0 0.65625 0
0.03125 0.65625 0
0 0.6875 0
0.03125 0.6875 0
0.03125 0.65625 0
0.0625 0.65625 0
0.03125 0.6875 0
0.0625 0.6875 0
0.0625 0.625 0
0.09375 0.625 0
0.0625 0.65625 0
0.09375 0.65625 0
0.09375 0.625 0
0.125 0.625 0
0.09375 0.65625 0
0.125 0.65625 0
0.0625 0.65625 0
0.09375 0.65625 0
0.0625 0.6875 0
0.09375 0.6875 0
0.09375 0.65625 0
0.125 0.65625 0
0.09375 0.6875 0
0.125 0.6875 0
0 0.6875 0
0.03125 0.6875 0
0 0.71875 0
0.03125 0.71875 0
0.03125 0.6875 0
0.0625 0.6875 0
0.03125 0.71875 0
0.0625 0.71875 0
0 0.71875 0
0.03125 0.71875 0
0 0.75 0
0.03125 0.75 0
0.03125 0.71875 0
0.0625 0.71875 0
0.03125 0.75 0
0.0625 0.75 0
0.0625 0.6875 0
0.09375 0.6875 0
0.0625 0.71875 0
0.09375 0.71875 0
0.09375 0.6875 0
0.125 0.6875 0
0.09375 0.71875 0
0.125 0.71875 0
0.0625 0.71875 0
0.09375 0.71875 0
0.0625 0.75 0
0.09375 0.75 0
0.09375 0.71875 0
0.125 0.71875 0
0.09375 0.75 0
0.125 0.75 0
0.125 0.625 0
0.15625 0.625 0
0.125 0.65625 0
0.15625 0.65625 0
0.15625 0.625 0
0.1875 0.625 0
0.15625 0.65625 0
0.1875 0.65625 0
0.125 0.65625 0
0.15625 0.65625 0
0.125 0.6875 0
0.15625 0.6875 0
0.15625 0.65625 0
0.1875 0.65625 0
0.15625 0.6875 0
0.1875 0.6875 0
0.1875 0.625 0
0.21875 0.625 0
0.1875 0.65625 0
0.21875 0.65625 0
0.21875 0.625 0
0.25 0.625 0
0.21875 0.65625 0
0.25 0.65625 0
0.1875 0.65625 0
0.21875 0.65625 0
0.1875 0.6875 0
0.21875 0.6875 0
0.21875 0.65625 0
0.25 0.65625 0
0.21875 0.6875 0
0.25 0.6875 0
0.125 0.6875 0
0.15625 0.6875 0
0.125 0.71875 0
0.15625 0.71875 0
0.15625 0.6875 0
0.1875 0.6875 0
0.15625 0.71875 0
0.1875 0.71875 0
0.125 0.71875 0
0.15625 0.71875 0
0.125 0.75 0
0.15625 0.75 0
0.15625 0.71875 0
0.1875 0.71875 0
0.15625 0.75 0
0.1875 0.75 0
0.1875 0.6875 0
0.21875 0.6875 0
0.1875 0.71875 0
0.21875 0.71875 0
0.21875 0.6875 0
0.25 0.6875 0
0.21875 0.71875 0
0.25 0.71875 0
0.1875 0.71875 0
0.21875 0.71875 0
0.1875 0.75 0
0.21875 0.75 0
0.21875 0.71875 0
0.25 0.71875 0
0.21875 0.75 0
0.25 0.75 0
0.25 0.5 0
0.28125 0.5 0
0.25 0.53125 0
0.28125 0.53125 0
0.28125 0.5 0
0.3125 0.5 0
0.28125 0.53125 0
0.3125 0.53125 0
0.25 0.53125 0
0.28125 0.53125 0
0.25 0.5625 0
0.28125 0.5625 0
0.28125 0.53125 0
0.3125 0.53125 0
0.28125 0.5625 0
0.3125 0.5625 0
0.3125 0.5 0
0.34375 0.5 0
0.3125 0.53125 0
0.34375 0.53125 0
0.34375 0.5 0
0.375 0.5 0
0.34375 0.53125 0
0.375 0.53125 0
0.3125 0.53125 0
0.34375 0.53125 0
0.3125 0.5625 0
0.34375 0.5625 0
0.34375 0.53125 0
0.375 0.53125 0
0.34375 0.5625 0
0.375 0.5625 0
0.25 0.5625 0
0.28125 0.5625 0
0.25 0.59375 0
0.28125 0.59375 0
0.28125 0.5625 0
0.3125 0.5625 0
0.28125 0.59375 0
0.3125 0.59375 0
0.25 0.59375 0
0.28125 0.59375 0
0.25 0.625 0
0.28125 0.625 0
0.28125 0.59375 0
0.3125 0.59375 0
0.28125 0.625 0
0.3125 0.625 0
0.3125 0.5625 0
0.34375 0.5625 0
0.3125 0.59375 0
0.34375 0.59375 0
0.34375 0.5625 0
0.375 0.5625 0
0.34375 0.59375 0
0.375 0.59375 0
0.3125 0.59375 0
0.34375 0.59375 0
0.3125 0.625 0
0.34375 0.625 0
0.34375 0.59375 0
0.375 0.59375 0
0.34375 0.625 0
0.375 0.625 0
0.375 0.5 0
0.40625 0.5 0
0.375 0.53125 0
0.40625 0.53125 0
0.40625 0.5 0
0.4375 0.5 0
0.40625 0.53125 0
0.4375 0.53125 0
0.375 0.53125 0
0.40625 0.53125 0
0.375 0.5625 0
0.40625 0.5625 0
0.40625 0.53125 0
0.4375 0.53125 0
0.40625 0.5625 0
0.4375 0.5625 0
0.4375 0.5 0
0.46875 0.5 0
0.4375 0.53125 0
0.46875 0.53125 0
0.46875 0.5 0
0.5 0.5 0
0.46875 0.53125 0
0.5 0.53125 0
0.4375 0.53125 0
0.46875 0.53125 0
0.4375 0.5625 0
0.46875 0.5625 0
0.46875 0.53125 0
0.5 0.53125 0
0.46875 0.5625 0
0.5 0.5625 0
0.375 0.5625 0
0.40625 0.5625 0
0.375 0.59375 0
0.40625 0.59375 0
0.40625 0.5625 0
0.4375 0.5625 0
0.40625 0.59375 0
0.4375 0.59375 0
0.375 0.59375 0
0.40625 0.59375 0
0.375 0.625 0
0.40625 0.625 0
0.40625 0.59375 0
0.4375 0.59375 0
0.40625 0.625 0
0.4375 0.625 0
0.4375 0.5625 0
0.46875 0.5625 0
0.4375 0.59375 0
0.46875 0.59375 0
0.46875 0.5625 0
0.5 0.5625 0
0.46875 0.59375 0
0.5 0.59375 0
0.4375 0.59375 0
0.46875 0.59375 0
0.4375 0.625 0
0.46875 0.625 0
0.46875 0.59375 0
0.5 0.59375 0
0.46875 0.625 0
0.5 0.625 0
0.25 0.625 0
0.28125 0.625 0
0.25 0.65625 0
0.28125 0.65625 0
0.28125 0.625 0
0.3125 0.625 0
0.28125 0.65625 0
0.3125 0.65625 0
0.25 0.65625 0
0.28125 0.65625 0
0.25 0.6875 0
0.28125 0.6875 0
0.28125 0.65625 0
0.3125 0.65625 0
0.28125 0.6875 0
0.3125 0.6875 0
0.3125 0.625 0
0.34375 0.625 0
0.3125 0.65625 0
0.34375 0.65625 0
0.34375 0.625 0
0.375 0.625 0
0.34375 0.65625 0
0.375 0.65625 0
0.3125 0.65625 0
0.34375 0.65625 0
0.3125 0.6875 0
0.34375 0.6875 0
0.34375 0.65625 0
0.375 0.65625 0
0.34375 0.6875 0
0.375 0.6875 0
0.25 0.6875 0
0.28125 0.6875 0
0.25 0.71875 0
0.28125 0.71875 0
0.28125 0.6875 0
0.3125 0.6875 0
0.28125 0.71875 0
0.3125 0.71875 0
0.25 0.71875 0
0.28125 0.71875 0
0.25 0.75 0
0.28125 0.75 0
0.28125 0.71875 0
0.3125 0.71875 0
0.28125 0.75 0
0.3125 0.75 0
0.3125 0.6875 0
0.34375 0.6875 0
0.3125 0.71875 0
0.34375 0.71875 0
0.34375 0.6875 0
0.375 0.6875 0
0.34375 0.71875 0
0.375 0.71875 0
0.3125 0.71875 0
0.34375 0.71875 0
0.3125 0.75 0
0.34375 0.75 0
0.34375 0.71875 0
0.375 0.71875 0
0.34375 0.75 0
0.375 0.75 0
0.375 0.625 0
0.40625 0.625 0
0.375 0.65625 0
0.40625 0.65625 0
0.40625 0.625 0
0.4375 0.625 0
0.40625 0.65625 0
0.4375 0.65625 0
0.375 0.65625 0
0.40625 0.65625 0
0.375 0.6875 0
0.40625 0.6875 0
0.40625 0.65625 0
0.4375 0.65625 0
0.40625 0.6875 0
0.4375 0.6875 0
0.4375 0.625 0
0.46875 0.625 0
0.4375 0.65625 0
0.46875 0.65625 0
0.46875 0.625 0
0.5 0.625 0
0.46875 0.65625 0
0.5 0.65625 0
0.4375 0.65625 0
0.46875 0.65625 0
0.4375 0.6875 0
0.46875 0.6875 0
0.46875 0.65625 0
0.5 0.65625 0
0.46875 0.6875 0
0.5 0.6875 0
0.375 0.6875 0
0.40625 0.6875 0
0.375 0.71875 0
0.40625 0.71875 0
0.40625 0.6875 0
0.4375 0.6875 0
0.40625 0.71875 0
0.4375 0.71875 0
0.375 0.71875 0
0.40625 0.71875 0
0.375 0.75 0
0.40625 0.75 0
0.40625 0.71875 0
0.4375 0.71875 0
0.40625 0.75 0
0.4375 0.75 0
0.4375 0.6875 0
0.46875 0.6875 0
0.4375 0.71875 0
0.46875 0.71875 0
0.46875 0.6875 0
0.5 0.6875 0
0.46875 0.71875 0
0.5 0.71875 0
0.4375 0.71875 0
0.46875 0.71875 0
0.4375 0.75 0
0.46875 0.75 0
0.46875 0.71875 0
0.5 0.71875 0
0.46875 0.75 0
0.5 0.75 0
0 0.75 0
0.03125 0.75 0
0 0.78125 0
0.03125 0.78125 0
0.03125 0.75 0
0.0625 0.75 0
0.03125 0.78125 0
0.0625 0.78125 0
0 0.78125 0
0.03125 0.78125 0
0 0.8125 0
0.03125 0.8125 0
0.03125 0.78125 0
0.0625 0.78125 0
0.03125 0.8125 0
0.0625 0.8125 0
0.0625 0.75 0
0.09375 0.75 0
0.0625 0.78125 0
0.09375 0.78125 0
0.09375 0.75 0
0.125 0.75 0
0.09375 0.78125 0
0.125 0.78125 0
0.0625 0.78125 0
0.09375 0.78125 0
0.0625 0.8125 0
0.09375 0.8125 0
0.09375 0.78125 0
0.125 0.78125 0
0.09375 0.8125 0
0.125 0.8125 0
0 0.8125 0
0.03125 0.8125 0
0 0.84375 0
0.03125 0.84375 0
0.03125 0.8125 0
0.0625 0.8125 0
0.03125 0.84375 0
0.0625 0.84375 0
0 0.84375 0
0.03125 0.84375 0
0 0.875 0
0.03125 0.875 0
0.03125 0.84375 0
0.0625 0.84375 0
0.03125 0.875 0
0.0625 0.875 0
0.0625 0.8125 0
0.09375 0.8125 0
0.0625 0.84375 0
0.09375 0.84375 0
0.09375 0.8125 0
0.125 0.8125 0
0.09375 0.84375 0
0.125 0.84375 0
0.0625 0.84375 0
0.09375 0.84375 0
0.0625 0.875 0
0.09375 0.875 0
0.09375 0.84375 0
0.125 0.84375 0
0.09375 0.875 0
0.125 0.875 0
0.125 0.75 0
0.15625 0.75 0
0.125 0.78125 0
0.15625 0.78125 0
0.15625 0.75 0
0.1875 0.75 0
0.15625 0.78125 0
0.1875 0.78125 0
0.125 0.78125 0
0.15625 0.78125 0
0.125 0.8125 0
0.15625 0.8125 0
0.15625 0.78125 0
0.1875 0.78125 0
0.15625 0.8125 0
0.1875 0.8125 0
0.1875 0.75 0
0.21875 0.75 0
0.1875 0.78125 0
0.21875 0.78125 0
0.21875 0.75 0
0.25 0.75 0
0.21875 0.78125 0
0.25 0.78125 0
0.1875 0.78125 0
0.21875 0.78125 0
0.1875 0.8125 0
0.21875 0.8125 0
0.21875 0.78125 0
0.25 0.78125 0
0.21875 0.8125 0
0.25 0.8125 0
0.125 0.8125 0
0.15625 0.8125 0
0.125 0.84375 0
0.15625 0.84375 0
0.15625 0.8125 0
[...]
POINT_DATA 4096
SCALARS x_dis double 1
LOOKUP_TABLE default
6.7668e-06 6.767e-06 8.63912e-06 8.63941e-06 6.767e-06 6.7676e-06 8.63941e-06 8.64024e-06 8.63912e-06 8.63941e-06 -1.42343e-05 -1.42338e-05 8.63941e-06 8.64024e-06 -1.42338e-05 -1.42326e-05 6.7676e-06 6.76853e-06 8.64024e-06 8.64151e-06 6.76853e-06 6.76972e-06 8.64151e-06 8.64314e-06 8.64024e-06 8.64151e-06 -1.42326e-05 -1.42309e-05 8.64151e-06 8.64314e-06 -1.42309e-05 -1.42287e-05 -1.42343e-05 -1.42338e-05 -7.06394e-05 -7.06386e-05 -1.42338e-05 -1.42326e-05 -7.06386e-05 -7.06368e-05 -7.06394e-05 -7.06386e-05 -0.000154603 -0.000154601 -7.06386e-05 -7.06368e-05 -0.000154601 -0.000154599 -1.42326e-05 -1.42309e-05 -7.06368e-05 -7.06345e-05 -1.42309e-05 -1.42287e-05 -7.06345e-05 -7.06316e-05 -7.06368e-05 -7.06345e-05 -0.000154599 -0.000154596 -7.06345e-05 -7.06316e-05 -0.000154596 -0.000154592 6.76972e-06 6.7711e-06 8.64314e-06 8.645e-06 6.7711e-06 6.77257e-06 8.645e-06 8.64689e-06 8.64314e-06 8.645e-06 -1.42287e-05 -1.42263e-05 8.645e-06 8.64689e-06 -1.42263e-05 -1.42239e-05 6.77257e-06 6.77406e-06 8.64689e-06 8.64862e-06 6.77406e-06 6.77549e-06 8.64862e-06 8.65021e-06 8.64689e-06 8.64862e-06 -1.42239e-05 -1.42217e-05 8.64862e-06 8.65021e-06 -1.42217e-05 -1.42198e-05 -1.42287e-05 -1.42263e-05 -7.06316e-05 -7.06285e-05 -1.42263e-05 -1.42239e-05 -7.06285e-05 -7.06254e-05 -7.06316e-05 -7.06285e-05 -0.000154592 -0.000154588 -7.06285e-05 -7.06254e-05 -0.000154588 -0.000154584 -1.42239e-05 -1.42217e-05 -7.06254e-05 -7.06227e-05 -1.42217e-05 -1.42198e-05 -7.06227e-05 -7.06203e-05 -7.06254e-05 -7.06227e-05 -0.000154584 -0.000154581 -7.06227e-05 -7.06203e-05 -0.000154581 -0.000154578 -0.000154603 -0.000154601 -0.000254508 -0.000254505 -0.000154601 -0.000154599 -0.000254505 -0.000254501 -0.000254508 -0.000254505 -0.000361329 -0.000361324 -0.000254505 -0.000254501 -0.000361324 -0.000361319 -0.000154599 -0.000154596 -0.000254501 -0.000254497 -0.000154596 -0.000154592 -0.000254497 -0.000254493 -0.000254501 -0.000254497 -0.000361319 -0.000361314 -0.000254497 -0.000254493 -0.000361314 -0.000361308 -0.000361329 -0.000361324 -0.000470493 -0.000470486 -0.000361324 -0.000361319 -0.000470486 -0.000470479 -0.000470493 -0.000470486 -0.000580278 -0.00058027 -0.000470486 -0.000470479 -0.00058027 -0.000580262 -0.000361319 -0.000361314 -0.000470479 -0.000470473 -0.000361314 -0.000361308 -0.000470473 -0.000470466 -0.000470479 -0.000470473 -0.000580262 -0.000580254 -0.000470473 -0.000470466 -0.000580254 -0.000580246 -0.000154592 -0.000154588 -0.000254493 -0.000254488 -0.000154588 -0.000154584 -0.000254488 -0.000254483 -0.000254493 -0.000254488 -0.000361308 -0.000361303 -0.000254488 -0.000254483 -0.000361303 -0.000361297 -0.000154584 -0.000154581 -0.000254483 -0.000254479 -0.000154581 -0.000154578 -0.000254479 -0.000254475 -0.000254483 -0.000254479 -0.000361297 -0.000361292 -0.000254479 -0.000254475 -0.000361292 -0.000361288 -0.000361308 -0.000361303 -0.000470466 -0.00047046 -0.000361303 -0.000361297 -0.00047046 -0.000470454 -0.000470466 -0.00047046 -0.000580246 -0.000580239 -0.00047046 -0.000470454 -0.000580239 -0.000580232 -0.000361297 -0.000361292 -0.000470454 -0.000470448 -0.000361292 -0.000361288 -0.000470448 -0.000470443 -0.000470454 -0.000470448 -0.000580232 -0.000580226 -0.000470448 -0.000470443 -0.000580226 -0.00058022 6.77549e-06 6.77694e-06 8.65021e-06 8.65232e-06 6.77694e-06 6.77855e-06 8.65232e-06 8.65686e-06 8.65021e-06 8.65232e-06 -1.42198e-05 -1.42171e-05 8.65232e-06 8.65686e-06 -1.42171e-05 -1.42115e-05 6.77855e-06 6.78017e-06 8.65686e-06 8.66437e-06 6.78017e-06 6.7809e-06 8.66437e-06 8.66198e-06 8.65686e-06 8.66437e-06 -1.42115e-05 -1.42021e-05 8.66437e-06 8.66198e-06 -1.42021e-05 -1.42003e-05 -1.42198e-05 -1.42171e-05 -7.06203e-05 -7.06171e-05 -1.42171e-05 -1.42115e-05 -7.06171e-05 -7.06117e-05 -7.06203e-05 -7.06171e-05 -0.000154578 -0.000154574 -7.06171e-05 -7.06117e-05 -0.000154574 -0.000154569 -1.42115e-05 -1.42021e-05 -7.06117e-05 -7.06038e-05 -1.42021e-05 -1.42003e-05 -7.06038e-05 -7.05995e-05 -7.06117e-05 -7.06038e-05 -0.000154569 -0.000154562 -7.06038e-05 -7.05995e-05 -0.000154562 -0.000154557 6.7809e-06 6.78013e-06 8.66198e-06 8.61712e-06 6.78013e-06 6.78026e-06 8.61712e-06 8.52037e-06 8.66198e-06 8.61712e-06 -1.42003e-05 -1.42339e-05 8.61712e-06 8.52037e-06 -1.42339e-05 -1.4317e-05 6.78026e-06 6.78414e-06 8.52037e-06 8.47942e-06 6.78414e-06 6.78716e-06 8.47942e-06 8.93035e-06 8.52037e-06 8.47942e-06 -1.4317e-05 -1.44169e-05 8.47942e-06 8.93035e-06 -1.44169e-05 -1.47692e-05 -1.42003e-05 -1.42339e-05 -7.05995e-05 -7.06087e-05 -1.42339e-05 -1.4317e-05 -7.06087e-05 -7.06231e-05 -7.05995e-05 -7.06087e-05 -0.000154557 -0.000154559 -7.06087e-05 -7.06231e-05 -0.000154559 -0.000154565 -1.4317e-05 -1.44169e-05 -7.06231e-05 -7.06455e-05 -1.44169e-05 -1.47692e-05 -7.06455e-05 -7.06409e-05 -7.06231e-05 -7.06455e-05 -0.000154565 -0.000154539 -7.06455e-05 -7.06409e-05 -0.000154539 -0.000154453 -0.000154578 -0.000154574 -0.000254475 -0.000254472 -0.000154574 -0.000154569 -0.000254472 -0.000254467 -0.000254475 -0.000254472 -0.000361288 -0.000361284 -0.000254472 -0.000254467 -0.000361284 -0.00036128 -0.000154569 -0.000154562 -0.000254467 -0.000254461 -0.000154562 -0.000154557 -0.000254461 -0.000254453 -0.000254467 -0.000254461 -0.00036128 -0.000361276 -0.000254461 -0.000254453 -0.000361276 -0.000361269 -0.000361288 -0.000361284 -0.000470443 -0.000470438 -0.000361284 -0.00036128 -0.000470438 -0.000470434 -0.000470443 -0.000470438 -0.00058022 -0.000580215 -0.000470438 -0.000470434 -0.000580215 -0.000580211 -0.00036128 -0.000361276 -0.000470434 -0.000470431 -0.000361276 -0.000361269 -0.000470431 -0.000470427 -0.000470434 -0.000470431 -0.000580211 -0.000580207 -0.000470431 -0.000470427 -0.000580207 -0.000580204 -0.000154557 -0.000154559 -0.000254453 -0.000254449 -0.000154559 -0.000154565 -0.000254449 -0.000254453 -0.000254453 -0.000254449 -0.000361269 -0.000361261 -0.000254449 -0.000254453 -0.000361261 -0.000361254 -0.000154565 -0.000154539 -0.000254453 -0.000254462 -0.000154539 -0.000154453 -0.000254462 -0.000254466 -0.000254453 -0.000254462 -0.000361254 -0.000361256 -0.000254462 -0.000254466 -0.000361256 -0.000361271 -0.000361269 -0.000361261 -0.000470427 -0.000470423 -0.000361261 -0.000361254 -0.000470423 -0.000470416 -0.000470427 -0.000470423 -0.000580204 -0.000580201 -0.000470423 -0.000470416 -0.000580201 -0.000580199 -0.000361254 -0.000361256 -0.000470416 -0.000470409 -0.000361256 -0.000361271 -0.000470409 -0.000470404 -0.000470416 -0.000470409 -0.000580199 -0.000580196 -0.000470409 -0.000470404 -0.000580196 -0.000580191 -0.000580278 -0.00058027 -0.000690206 -0.000690196 -0.00058027 -0.000580262 -0.000690196 -0.000690187 -0.000690206 -0.000690196 -0.000800161 -0.000800148 -0.000690196 -0.000690187 -0.000800148 -0.000800137 -0.000580262 -0.000580254 -0.000690187 -0.000690177 -0.000580254 -0.000580246 -0.000690177 -0.000690169 -0.000690187 -0.000690177 -0.000800137 -0.000800126 -0.000690177 -0.000690169 -0.000800126 -0.000800117 -0.000800161 -0.000800148 -0.000910128 -0.000910113 -0.000800148 -0.000800137 -0.000910113 -0.0009101 -0.000910128 -0.000910113 -0.0010201 -0.00102008 -0.000910113 -0.0009101 -0.00102008 -0.00102007 -0.000800137 -0.000800126 -0.0009101 -0.000910088 -0.000800126 -0.000800117 -0.000910088 -0.000910078 -0.0009101 -0.000910088 -0.00102007 -0.00102006 -0.000910088 -0.000910078 -0.00102006 -0.00102005 -0.000580246 -0.000580239 -0.000690169 -0.000690161 -0.000580239 -0.000580232 -0.000690161 -0.000690154 -0.000690169 -0.000690161 -0.000800117 -0.000800109 -0.000690161 -0.000690154 -0.000800109 -0.000800101 -0.000580232 -0.000580226 -0.000690154 -0.000690147 -0.000580226 -0.00058022 -0.000690147 -0.000690142 -0.000690154 -0.000690147 -0.000800101 -0.000800095 -0.000690147 -0.000690142 -0.000800095 -0.000800089 -0.000800117 -0.000800109 -0.000910078 -0.00091007 -0.000800109 -0.000800101 -0.00091007 -0.000910063 -0.000910078 -0.00091007 -0.00102005 -0.00102004 -0.00091007 -0.000910063 -0.00102004 -0.00102003 -0.000800101 -0.000800095 -0.000910063 -0.000910056 -0.000800095 -0.000800089 -0.000910056 -0.000910051 -0.000910063 -0.000910056 -0.00102003 -0.00102002 -0.000910056 -0.000910051 -0.00102002 -0.00102002 -0.0010201 -0.00102008 -0.00113008 -0.00113006 -0.00102008 -0.00102007 -0.00113006 -0.00113004 -0.00113008 -0.00113006 -0.00124006 -0.00124004 -0.00113006 -0.00113004 -0.00124004 -0.00124003 -0.00102007 -0.00102006 -0.00113004 -0.00113003 -0.00102006 -0.00102005 -0.00113003 -0.00113002 -0.00113004 -0.00113003 -0.00124003 -0.00124001 -0.00113003 -0.00113002 -0.00124001 -0.00124001 -0.00124006 -0.00124004 -0.00135005 -0.00135002 -0.00124004 -0.00124003 -0.00135002 -0.00135001 -0.00135005 -0.00135002 -0.00146 -0.00146 -0.00135002 -0.00135001 -0.00146 -0.00146 -0.00124003 -0.00124001 -0.00135001 -0.00135 -0.00124001 -0.00124001 -0.00135 -0.00135 -0.00135001 -0.00135 -0.00146 -0.00146 -0.00135 -0.00135 -0.00146 -0.00146 -0.00102005 -0.00102004 -0.00113002 -0.00113001 -0.00102004 -0.00102003 -0.00113001 -0.00113001 -0.00113002 -0.00113001 -0.00124001 -0.00124 -0.00113001 -0.00113001 -0.00124 -0.00124 -0.00102003 -0.00102002 -0.00113001 -0.00113 -0.00102002 -0.00102002 -0.00113 -0.00113 -0.00113001 -0.00113 -0.00124 -0.00123999 -0.00113 -0.00113 -0.00123999 -0.00123999 -0.00124001 -0.00124 -0.00135 -0.00135 -0.00124 -0.00124 -0.00135 -0.00134999 -0.00135 -0.00135 -0.00146 -0.00146 -0.00135 -0.00134999 -0.00146 -0.00146 -0.00124 -0.00123999 -0.00134999 -0.00134999 -0.00123999 -0.00123999 -0.00134999 -0.00134999 -0.00134999 -0.00134999 -0.00146 -0.00146 -0.00134999 -0.00134999 -0.00146 -0.00146 -0.00058022 -0.000580215 -0.000690142 -0.000690137 -0.000580215 -0.000580211 -0.000690137 -0.000690132 -0.000690142 -0.000690137 -0.000800089 -0.000800084 -0.000690137 -0.000690132 -0.000800084 -0.00080008 -0.000580211 -0.000580207 -0.000690132 -0.000690128 -0.000580207 -0.000580204 -0.000690128 -0.000690124 -0.000690132 -0.000690128 -0.00080008 -0.000800076 -0.000690128 -0.000690124 -0.000800076 -0.000800072 -0.000800089 -0.000800084 -0.000910051 -0.000910047 -0.000800084 -0.00080008 -0.000910047 -0.000910042 -0.000910051 -0.000910047 -0.00102002 -0.00102002 -0.000910047 -0.000910042 -0.00102002 -0.00102001 -0.00080008 -0.000800076 -0.000910042 -0.000910039 -0.000800076 -0.000800072 -0.000910039 -0.000910035 -0.000910042 -0.000910039 -0.00102001 -0.00102001 -0.000910039 -0.000910035 -0.00102001 -0.00102001 -0.000580204 -0.000580201 -0.000690124 -0.000690121 -0.000580201 -0.000580199 -0.000690121 -0.000690118 -0.000690124 -0.000690121 -0.000800072 -0.000800069 -0.000690121 -0.000690118 -0.000800069 -0.000800065 -0.000580199 -0.000580196 -0.000690118 -0.000690115 -0.000580196 -0.000580191 -0.000690115 -0.000690113 -0.000690118 -0.000690115 -0.000800065 -0.000800062 -0.000690115 -0.000690113 -0.000800062 -0.000800059 -0.000800072 -0.000800069 -0.000910035 -0.000910032 -0.000800069 -0.000800065 -0.000910032 -0.000910029 -0.000910035 -0.000910032 -0.00102001 -0.00102 -0.000910032 -0.000910029 -0.00102 -0.00102 -0.000800065 -0.000800062 -0.000910029 -0.000910026 -0.000800062 -0.000800059 -0.000910026 -0.000910023 -0.000910029 -0.000910026 -0.00102 -0.00102 -0.000910026 -0.000910023 -0.00102 -0.00102 -0.00102002 -0.00102002 -0.00113 -0.00113 -0.00102002 -0.00102001 -0.00113 -0.00112999 -0.00113 -0.00113 -0.00123999 -0.00123999 -0.00113 -0.00112999 -0.00123999 -0.00123999 -0.00102001 -0.00102001 -0.00112999 -0.00112999 -0.00102001 -0.00102001 -0.00112999 -0.00112999 -0.00112999 -0.00112999 -0.00123999 -0.00123998 -0.00112999 -0.00112999 -0.00123998 -0.00123998 -0.00123999 -0.00123999 -0.00134999 -0.00134999 -0.00123999 -0.00123999 -0.00134999 -0.00134999 -0.00134999 -0.00134999 -0.00146 -0.00146 -0.00134999 -0.00134999 -0.00146 -0.00146 -0.00123999 -0.00123998 -0.00134999 -0.00134999 -0.00123998 -0.00123998 -0.00134999 -0.00134999 -0.00134999 -0.00134999 -0.00146 -0.00146 -0.00134999 -0.00134999 -0.00146 -0.00146 -0.00102001 -0.00102 -0.00112999 -0.00112999 -0.00102 -0.00102 -0.00112999 -0.00112999 -0.00112999 -0.00112999 -0.00123998 -0.00123998 -0.00112999 -0.00112999 -0.00123998 -0.00123998 -0.00102 -0.00102 -0.00112999 -0.00112998 -0.00102 -0.00102 -0.00112998 -0.00112998 -0.00112999 -0.00112998 -0.00123998 -0.00123998 -0.00112998 -0.00112998 -0.00123998 -0.00123998 -0.00123998 -0.00123998 -0.00134999 -0.00134999 -0.00123998 -0.00123998 -0.00134999 -0.00134999 -0.00134999 -0.00134999 -0.00146 -0.00146 -0.00134999 -0.00134999 -0.00146 -0.00146 -0.00123998 -0.00123998 -0.00134999 -0.00134999 -0.00123998 -0.00123998 -0.00134999 -0.00134998 -0.00134999 -0.00134999 -0.00146 -0.00146 -0.00134999 -0.00134998 -0.00146 -0.00146 6.78716e-06 1.23806e-05 8.93035e-06 8.66284e-06 1.23806e-05 1.40678e-05 8.66284e-06 8.80329e-06 8.93035e-06 8.66284e-06 -1.47692e-05 -1.51916e-05 8.66284e-06 8.80329e-06 -1.51916e-05 -1.55665e-05 1.40678e-05 1.40619e-05 8.80329e-06 8.64155e-06 1.40619e-05 1.37581e-05 8.64155e-06 8.34144e-06 8.80329e-06 8.64155e-06 -1.55665e-05 -1.5706e-05 8.64155e-06 8.34144e-06 -1.5706e-05 -1.58099e-05 -1.47692e-05 -1.51916e-05 -7.06409e-05 -7.061e-05 -1.51916e-05 -1.55665e-05 -7.061e-05 -7.0529e-05 -7.06409e-05 -7.061e-05 -0.000154453 -0.000154319 -7.061e-05 -7.0529e-05 -0.000154319 -0.000154215 -1.55665e-05 -1.5706e-05 -7.0529e-05 -7.04799e-05 -1.5706e-05 -1.58099e-05 -7.04799e-05 -7.04803e-05 -7.0529e-05 -7.04799e-05 -0.000154215 -0.000154186 -7.04799e-05 -7.04803e-05 -0.000154186 -0.000154209 1.37581e-05 1.3566e-05 8.34144e-06 8.1711e-06 1.3566e-05 1.35141e-05 8.1711e-06 8.16134e-06 8.34144e-06 8.1711e-06 -1.58099e-05 -1.58686e-05 8.1711e-06 8.16134e-06 -1.58686e-05 -1.58641e-05 1.35141e-05 1.35457e-05 8.16134e-06 8.20492e-06 1.35457e-05 1.35842e-05 8.20492e-06 8.23076e-06 8.16134e-06 8.20492e-06 -1.58641e-05 -1.58388e-05 8.20492e-06 8.23076e-06 -1.58388e-05 -1.58246e-05 -1.58099e-05 -1.58686e-05 -7.04803e-05 -7.05002e-05 -1.58686e-05 -1.58641e-05 -7.05002e-05 -7.05004e-05 -7.04803e-05 -7.05002e-05 -0.000154209 -0.000154226 -7.05002e-05 -7.05004e-05 -0.000154226 -0.000154221 -1.58641e-05 -1.58388e-05 -7.05004e-05 -7.0487e-05 -1.58388e-05 -1.58246e-05 -7.0487e-05 -7.04759e-05 -7.05004e-05 -7.0487e-05 -0.000154221 -0.000154207 -7.0487e-05 -7.04759e-05 -0.000154207 -0.000154198 -0.000154453 -0.000154319 -0.000254466 -0.00025447 -0.000154319 -0.000154215 -0.00025447 -0.00025449 -0.000254466 -0.00025447 -0.000361271 -0.000361294 -0.00025447 -0.00025449 -0.000361294 -0.000361315 -0.000154215 -0.000154186 -0.00025449 -0.000254522 -0.000154186 -0.000154209 -0.000254522 -0.00025454 -0.00025449 -0.000254522 -0.000361315 -0.000361321 -0.000254522 -0.00025454 -0.000361321 -0.000361312 -0.000361271 -0.000361294 -0.000470404 -0.000470399 -0.000361294 -0.000361315 -0.000470399 -0.000470392 -0.000470404 -0.000470399 -0.000580191 -0.000580186 -0.000470399 -0.000470392 -0.000580186 -0.000580181 -0.000361315 -0.000361321 -0.000470392 -0.000470382 -0.000361321 -0.000361312 -0.000470382 -0.000470373 -0.000470392 -0.000470382 -0.000580181 -0.000580177 -0.000470382 -0.000470373 -0.000580177 -0.000580175 -0.000154209 -0.000154226 -0.00025454 -0.000254535 -0.000154226 -0.000154221 -0.000254535 -0.000254521 -0.00025454 -0.000254535 -0.000361312 -0.000361298 -0.000254535 -0.000254521 -0.000361298 -0.000361289 -0.000154221 -0.000154207 -0.000254521 -0.000254511 -0.000154207 -0.000154198 -0.000254511 -0.000254507 -0.000254521 -0.000254511 -0.000361289 -0.000361285 -0.000254511 -0.000254507 -0.000361285 -0.000361282 -0.000361312 -0.000361298 -0.000470373 -0.000470368 -0.000361298 -0.000361289 -0.000470368 -0.000470365 -0.000470373 -0.000470368 -0.000580175 -0.000580173 -0.000470368 -0.000470365 -0.000580173 -0.00058017 -0.000361289 -0.000361285 -0.000470365 -0.000470363 -0.000361285 -0.000361282 -0.000470363 -0.000470359 -0.000470365 -0.000470363 -0.00058017 -0.000580165 -0.000470363 -0.000470359 -0.000580165 -0.00058016 1.35842e-05 1.35951e-05 8.23076e-06 8.23419e-06 1.35951e-05 1.35918e-05 8.23419e-06 8.23141e-06 8.23076e-06 8.23419e-06 -1.58246e-05 -1.58214e-05 8.23419e-06 8.23141e-06 -1.58214e-05 -1.58214e-05 1.35918e-05 1.35907e-05 8.23141e-06 8.23147e-06 1.35907e-05 1.35938e-05 8.23147e-06 8.2343e-06 8.23141e-06 8.23147e-06 -1.58214e-05 -1.58205e-05 8.23147e-06 8.2343e-06 -1.58205e-05 -1.58182e-05 -1.58246e-05 -1.58214e-05 -7.04759e-05 -7.04715e-05 -1.58214e-05 -1.58214e-05 -7.04715e-05 -7.04705e-05 -7.04759e-05 -7.04715e-05 -0.000154198 -0.000154195 -7.04715e-05 -7.04705e-05 -0.000154195 -0.000154194 -1.58214e-05 -1.58205e-05 -7.04705e-05 -7.04694e-05 -1.58205e-05 -1.58182e-05 -7.04694e-05 -7.04668e-05 -7.04705e-05 -7.04694e-05 -0.000154194 -0.000154192 -7.04694e-05 -7.04668e-05 -0.000154192 -0.000154188 1.35938e-05 1.35974e-05 8.2343e-06 8.23724e-06 1.35974e-05 1.35999e-05 8.23724e-06 8.23914e-06 8.2343e-06 8.23724e-06 -1.58182e-05 -1.58156e-05 8.23724e-06 8.23914e-06 -1.58156e-05 -1.58136e-05 1.35999e-05 1.36011e-05 8.23914e-06 8.24013e-06 1.36011e-05 1.36014e-05 8.24013e-06 8.24045e-06 8.23914e-06 8.24013e-06 -1.58136e-05 -1.58124e-05 8.24013e-06 8.24045e-06 -1.58124e-05 -1.5812e-05 -1.58182e-05 -1.58156e-05 -7.04668e-05 -7.04638e-05 -1.58156e-05 -1.58136e-05 -7.04638e-05 -7.04614e-05 -7.04668e-05 -7.04638e-05 -0.000154188 -0.000154184 -7.04638e-05 -7.04614e-05 -0.000154184 -0.000154181 -1.58136e-05 -1.58124e-05 -7.04614e-05 -7.04598e-05 -1.58124e-05 -1.5812e-05 -7.04598e-05 -7.0459e-05 -7.04614e-05 -7.04598e-05 -0.000154181 -0.000154179 -7.04598e-05 -7.0459e-05 -0.000154179 -0.000154177 -0.000154198 -0.000154195 -0.000254507 -0.000254505 -0.000154195 -0.000154194 -0.000254505 -0.000254502 -0.000254507 -0.000254505 -0.000361282 -0.000361279 -0.000254505 -0.000254502 -0.000361279 -0.000361274 -0.000154194 -0.000154192 -0.000254502 -0.000254498 -0.000154192 -0.000154188 -0.000254498 -0.000254493 -0.000254502 -0.000254498 -0.000361274 -0.000361269 -0.000254498 -0.000254493 -0.000361269 -0.000361263 -0.000361282 -0.000361279 -0.000470359 -0.000470354 -0.000361279 -0.000361274 -0.000470354 -0.000470348 -0.000470359 -0.000470354 -0.00058016 -0.000580155 -0.000470354 -0.000470348 -0.000580155 -0.000580149 -0.000361274 -0.000361269 -0.000470348 -0.000470342 -0.000361269 -0.000361263 -0.000470342 -0.000470336 -0.000470348 -0.000470342 -0.000580149 -0.000580142 -0.000470342 -0.000470336 -0.000580142 -0.000580135 -0.000154188 -0.000154184 -0.000254493 -0.000254489 -0.000154184 -0.000154181 -0.000254489 -0.000254485 -0.000254493 -0.000254489 -0.000361263 -0.000361258 -0.000254489 -0.000254485 -0.000361258 -0.000361253 -0.000154181 -0.000154179 -0.000254485 -0.000254481 -0.000154179 -0.000154177 -0.000254481 -0.000254478 -0.000254485 -0.000254481 -0.000361253 -0.000361248 -0.000254481 -0.000254478 -0.000361248 -0.000361243 -0.000361263 -0.000361258 -0.000470336 -0.000470329 -0.000361258 -0.000361253 -0.000470329 -0.000470322 -0.000470336 -0.000470329 -0.000580135 -0.000580127 -0.000470329 -0.000470322 -0.000580127 -0.000580119 -0.000361253 -0.000361248 -0.000470322 -0.000470316 -0.000361248 -0.000361243 -0.000470316 -0.000470309 -0.000470322 -0.000470316 -0.000580119 -0.000580111 -0.000470316 -0.000470309 -0.000580111 -0.000580103 -0.000580191 -0.000580186 -0.000690113 -0.00069011 -0.000580186 -0.000580181 -0.00069011 -0.000690108 -0.000690113 -0.00069011 -0.000800059 -0.000800055 -0.00069011 -0.000690108 -0.000800055 -0.000800052 -0.000580181 -0.000580177 -0.000690108 -0.000690106 -0.000580177 -0.000580175 -0.000690106 -0.000690103 -0.000690108 -0.000690106 -0.000800052 -0.000800048 -0.000690106 -0.000690103 -0.000800048 -0.000800045 -0.000800059 -0.000800055 -0.000910023 -0.00091002 -0.000800055 -0.000800052 -0.00091002 -0.000910017 -0.000910023 -0.00091002 -0.00102 -0.00101999 -0.00091002 -0.000910017 -0.00101999 -0.00101999 -0.000800052 -0.000800048 -0.000910017 -0.000910014 -0.000800048 -0.000800045 -0.000910014 -0.000910011 -0.000910017 -0.000910014 -0.00101999 -0.00101999 -0.000910014 -0.000910011 -0.0