# vtk DataFile Version 3.0
#This file was generated by the deal.II library on 2022/11/16 at 21:14:30
ASCII
DATASET UNSTRUCTURED_GRID

POINTS 4096 double
0 0.5 0
0.03125 0.5 0
0 0.53125 0
0.03125 0.53125 0
0.03125 0.5 0
0.0625 0.5 0
0.03125 0.53125 0
0.0625 0.53125 0
0 0.53125 0
0.03125 0.53125 0
0 0.5625 0
0.03125 0.5625 0
0.03125 0.53125 0
0.0625 0.53125 0
0.03125 0.5625 0
0.0625 0.5625 0
0.0625 0.5 0
0.09375 0.5 0
0.0625 0.53125 0
0.09375 0.53125 0
0.09375 0.5 0
0.125 0.5 0
0.09375 0.53125 0
0.125 0.53125 0
0.0625 0.53125 0
0.09375 0.53125 0
0.0625 0.5625 0
0.09375 0.5625 0
0.09375 0.53125 0
0.125 0.53125 0
0.09375 0.5625 0
0.125 0.5625 0
0 0.5625 0
0.03125 0.5625 0
0 0.59375 0
0.03125 0.59375 0
0.03125 0.5625 0
0.0625 0.5625 0
0.03125 0.59375 0
0.0625 0.59375 0
0 0.59375 0
0.03125 0.59375 0
0 0.625 0
0.03125 0.625 0
0.03125 0.59375 0
0.0625 0.59375 0
0.03125 0.625 0
0.0625 0.625 0
0.0625 0.5625 0
0.09375 0.5625 0
0.0625 0.59375 0
0.09375 0.59375 0
0.09375 0.5625 0
0.125 0.5625 0
0.09375 0.59375 0
0.125 0.59375 0
0.0625 0.59375 0
0.09375 0.59375 0
0.0625 0.625 0
0.09375 0.625 0
0.09375 0.59375 0
0.125 0.59375 0
0.09375 0.625 0
0.125 0.625 0
0.125 0.5 0
0.15625 0.5 0
0.125 0.53125 0
0.15625 0.53125 0
0.15625 0.5 0
0.1875 0.5 0
0.15625 0.53125 0
0.1875 0.53125 0
0.125 0.53125 0
0.15625 0.53125 0
0.125 0.5625 0
0.15625 0.5625 0
0.15625 0.53125 0
0.1875 0.53125 0
0.15625 0.5625 0
0.1875 0.5625 0
0.1875 0.5 0
0.21875 0.5 0
0.1875 0.53125 0
0.21875 0.53125 0
0.21875 0.5 0
0.25 0.5 0
0.21875 0.53125 0
0.25 0.53125 0
0.1875 0.53125 0
0.21875 0.53125 0
0.1875 0.5625 0
0.21875 0.5625 0
0.21875 0.53125 0
0.25 0.53125 0
0.21875 0.5625 0
0.25 0.5625 0
0.125 0.5625 0
0.15625 0.5625 0
0.125 0.59375 0
0.15625 0.59375 0
0.15625 0.5625 0
0.1875 0.5625 0
0.15625 0.59375 0
0.1875 0.59375 0
0.125 0.59375 0
0.15625 0.59375 0
0.125 0.625 0
0.15625 0.625 0
0.15625 0.59375 0
0.1875 0.59375 0
0.15625 0.625 0
0.1875 0.625 0
0.1875 0.5625 0
0.21875 0.5625 0
0.1875 0.59375 0
0.21875 0.59375 0
0.21875 0.5625 0
0.25 0.5625 0
0.21875 0.59375 0
0.25 0.59375 0
0.1875 0.59375 0
0.21875 0.59375 0
0.1875 0.625 0
0.21875 0.625 0
0.21875 0.59375 0
0.25 0.59375 0
0.21875 0.625 0
0.25 0.625 0
0 0.625 0
0.03125 0.625 0
0 0.65625 0
0.03125 0.65625 0
0.03125 0.625 0
0.0625 0.625 0
0.03125 0.65625 0
0.0625 0.65625 0
0 0.65625 0
0.03125 0.65625 0
0 0.6875 0
0.03125 0.6875 0
0.03125 0.65625 0
0.0625 0.65625 0
0.03125 0.6875 0
0.0625 0.6875 0
0.0625 0.625 0
0.09375 0.625 0
0.0625 0.65625 0
0.09375 0.65625 0
0.09375 0.625 0
0.125 0.625 0
0.09375 0.65625 0
0.125 0.65625 0
0.0625 0.65625 0
0.09375 0.65625 0
0.0625 0.6875 0
0.09375 0.6875 0
0.09375 0.65625 0
0.125 0.65625 0
0.09375 0.6875 0
0.125 0.6875 0
0 0.6875 0
0.03125 0.6875 0
0 0.71875 0
0.03125 0.71875 0
0.03125 0.6875 0
0.0625 0.6875 0
0.03125 0.71875 0
0.0625 0.71875 0
0 0.71875 0
0.03125 0.71875 0
0 0.75 0
0.03125 0.75 0
0.03125 0.71875 0
0.0625 0.71875 0
0.03125 0.75 0
0.0625 0.75 0
0.0625 0.6875 0
0.09375 0.6875 0
0.0625 0.71875 0
0.09375 0.71875 0
0.09375 0.6875 0
0.125 0.6875 0
0.09375 0.71875 0
0.125 0.71875 0
0.0625 0.71875 0
0.09375 0.71875 0
0.0625 0.75 0
0.09375 0.75 0
0.09375 0.71875 0
0.125 0.71875 0
0.09375 0.75 0
0.125 0.75 0
0.125 0.625 0
0.15625 0.625 0
0.125 0.65625 0
0.15625 0.65625 0
0.15625 0.625 0
0.1875 0.625 0
0.15625 0.65625 0
0.1875 0.65625 0
0.125 0.65625 0
0.15625 0.65625 0
0.125 0.6875 0
0.15625 0.6875 0
0.15625 0.65625 0
0.1875 0.65625 0
0.15625 0.6875 0
0.1875 0.6875 0
0.1875 0.625 0
0.21875 0.625 0
0.1875 0.65625 0
0.21875 0.65625 0
0.21875 0.625 0
0.25 0.625 0
0.21875 0.65625 0
0.25 0.65625 0
0.1875 0.65625 0
0.21875 0.65625 0
0.1875 0.6875 0
0.21875 0.6875 0
0.21875 0.65625 0
0.25 0.65625 0
0.21875 0.6875 0
0.25 0.6875 0
0.125 0.6875 0
0.15625 0.6875 0
0.125 0.71875 0
0.15625 0.71875 0
0.15625 0.6875 0
0.1875 0.6875 0
0.15625 0.71875 0
0.1875 0.71875 0
0.125 0.71875 0
0.15625 0.71875 0
0.125 0.75 0
0.15625 0.75 0
0.15625 0.71875 0
0.1875 0.71875 0
0.15625 0.75 0
0.1875 0.75 0
0.1875 0.6875 0
0.21875 0.6875 0
0.1875 0.71875 0
0.21875 0.71875 0
0.21875 0.6875 0
0.25 0.6875 0
0.21875 0.71875 0
0.25 0.71875 0
0.1875 0.71875 0
0.21875 0.71875 0
0.1875 0.75 0
0.21875 0.75 0
0.21875 0.71875 0
0.25 0.71875 0
0.21875 0.75 0
0.25 0.75 0
0.25 0.5 0
0.28125 0.5 0
0.25 0.53125 0
0.28125 0.53125 0
0.28125 0.5 0
0.3125 0.5 0
0.28125 0.53125 0
0.3125 0.53125 0
0.25 0.53125 0
0.28125 0.53125 0
0.25 0.5625 0
0.28125 0.5625 0
0.28125 0.53125 0
0.3125 0.53125 0
0.28125 0.5625 0
0.3125 0.5625 0
0.3125 0.5 0
0.34375 0.5 0
0.3125 0.53125 0
0.34375 0.53125 0
0.34375 0.5 0
0.375 0.5 0
0.34375 0.53125 0
0.375 0.53125 0
0.3125 0.53125 0
0.34375 0.53125 0
0.3125 0.5625 0
0.34375 0.5625 0
0.34375 0.53125 0
0.375 0.53125 0
0.34375 0.5625 0
0.375 0.5625 0
0.25 0.5625 0
0.28125 0.5625 0
0.25 0.59375 0
0.28125 0.59375 0
0.28125 0.5625 0
0.3125 0.5625 0
0.28125 0.59375 0
0.3125 0.59375 0
0.25 0.59375 0
0.28125 0.59375 0
0.25 0.625 0
0.28125 0.625 0
0.28125 0.59375 0
0.3125 0.59375 0
0.28125 0.625 0
0.3125 0.625 0
0.3125 0.5625 0
0.34375 0.5625 0
0.3125 0.59375 0
0.34375 0.59375 0
0.34375 0.5625 0
0.375 0.5625 0
0.34375 0.59375 0
0.375 0.59375 0
0.3125 0.59375 0
0.34375 0.59375 0
0.3125 0.625 0
0.34375 0.625 0
0.34375 0.59375 0
0.375 0.59375 0
0.34375 0.625 0
0.375 0.625 0
0.375 0.5 0
0.40625 0.5 0
0.375 0.53125 0
0.40625 0.53125 0
0.40625 0.5 0
0.4375 0.5 0
0.40625 0.53125 0
0.4375 0.53125 0
0.375 0.53125 0
0.40625 0.53125 0
0.375 0.5625 0
0.40625 0.5625 0
0.40625 0.53125 0
0.4375 0.53125 0
0.40625 0.5625 0
0.4375 0.5625 0
0.4375 0.5 0
0.46875 0.5 0
0.4375 0.53125 0
0.46875 0.53125 0
0.46875 0.5 0
0.5 0.5 0
0.46875 0.53125 0
0.5 0.53125 0
0.4375 0.53125 0
0.46875 0.53125 0
0.4375 0.5625 0
0.46875 0.5625 0
0.46875 0.53125 0
0.5 0.53125 0
0.46875 0.5625 0
0.5 0.5625 0
0.375 0.5625 0
0.40625 0.5625 0
0.375 0.59375 0
0.40625 0.59375 0
0.40625 0.5625 0
0.4375 0.5625 0
0.40625 0.59375 0
0.4375 0.59375 0
0.375 0.59375 0
0.40625 0.59375 0
0.375 0.625 0
0.40625 0.625 0
0.40625 0.59375 0
0.4375 0.59375 0
0.40625 0.625 0
0.4375 0.625 0
0.4375 0.5625 0
0.46875 0.5625 0
0.4375 0.59375 0
0.46875 0.59375 0
0.46875 0.5625 0
0.5 0.5625 0
0.46875 0.59375 0
0.5 0.59375 0
0.4375 0.59375 0
0.46875 0.59375 0
0.4375 0.625 0
0.46875 0.625 0
0.46875 0.59375 0
0.5 0.59375 0
0.46875 0.625 0
0.5 0.625 0
0.25 0.625 0
0.28125 0.625 0
0.25 0.65625 0
0.28125 0.65625 0
0.28125 0.625 0
0.3125 0.625 0
0.28125 0.65625 0
0.3125 0.65625 0
0.25 0.65625 0
0.28125 0.65625 0
0.25 0.6875 0
0.28125 0.6875 0
0.28125 0.65625 0
0.3125 0.65625 0
0.28125 0.6875 0
0.3125 0.6875 0
0.3125 0.625 0
0.34375 0.625 0
0.3125 0.65625 0
0.34375 0.65625 0
0.34375 0.625 0
0.375 0.625 0
0.34375 0.65625 0
0.375 0.65625 0
0.3125 0.65625 0
0.34375 0.65625 0
0.3125 0.6875 0
0.34375 0.6875 0
0.34375 0.65625 0
0.375 0.65625 0
0.34375 0.6875 0
0.375 0.6875 0
0.25 0.6875 0
0.28125 0.6875 0
0.25 0.71875 0
0.28125 0.71875 0
0.28125 0.6875 0
0.3125 0.6875 0
0.28125 0.71875 0
0.3125 0.71875 0
0.25 0.71875 0
0.28125 0.71875 0
0.25 0.75 0
0.28125 0.75 0
0.28125 0.71875 0
0.3125 0.71875 0
0.28125 0.75 0
0.3125 0.75 0
0.3125 0.6875 0
0.34375 0.6875 0
0.3125 0.71875 0
0.34375 0.71875 0
0.34375 0.6875 0
0.375 0.6875 0
0.34375 0.71875 0
0.375 0.71875 0
0.3125 0.71875 0
0.34375 0.71875 0
0.3125 0.75 0
0.34375 0.75 0
0.34375 0.71875 0
0.375 0.71875 0
0.34375 0.75 0
0.375 0.75 0
0.375 0.625 0
0.40625 0.625 0
0.375 0.65625 0
0.40625 0.65625 0
0.40625 0.625 0
0.4375 0.625 0
0.40625 0.65625 0
0.4375 0.65625 0
0.375 0.65625 0
0.40625 0.65625 0
0.375 0.6875 0
0.40625 0.6875 0
0.40625 0.65625 0
0.4375 0.65625 0
0.40625 0.6875 0
0.4375 0.6875 0
0.4375 0.625 0
0.46875 0.625 0
0.4375 0.65625 0
0.46875 0.65625 0
0.46875 0.625 0
0.5 0.625 0
0.46875 0.65625 0
0.5 0.65625 0
0.4375 0.65625 0
0.46875 0.65625 0
0.4375 0.6875 0
0.46875 0.6875 0
0.46875 0.65625 0
0.5 0.65625 0
0.46875 0.6875 0
0.5 0.6875 0
0.375 0.6875 0
0.40625 0.6875 0
0.375 0.71875 0
0.40625 0.71875 0
0.40625 0.6875 0
0.4375 0.6875 0
0.40625 0.71875 0
0.4375 0.71875 0
0.375 0.71875 0
0.40625 0.71875 0
0.375 0.75 0
0.40625 0.75 0
0.40625 0.71875 0
0.4375 0.71875 0
0.40625 0.75 0
0.4375 0.75 0
0.4375 0.6875 0
0.46875 0.6875 0
0.4375 0.71875 0
0.46875 0.71875 0
0.46875 0.6875 0
0.5 0.6875 0
0.46875 0.71875 0
0.5 0.71875 0
0.4375 0.71875 0
0.46875 0.71875 0
0.4375 0.75 0
0.46875 0.75 0
0.46875 0.71875 0
0.5 0.71875 0
0.46875 0.75 0
0.5 0.75 0
0 0.75 0
0.03125 0.75 0
0 0.78125 0
0.03125 0.78125 0
0.03125 0.75 0
0.0625 0.75 0
0.03125 0.78125 0
0.0625 0.78125 0
0 0.78125 0
0.03125 0.78125 0
0 0.8125 0
0.03125 0.8125 0
0.03125 0.78125 0
0.0625 0.78125 0
0.03125 0.8125 0
0.0625 0.8125 0
0.0625 0.75 0
0.09375 0.75 0
0.0625 0.78125 0
0.09375 0.78125 0
0.09375 0.75 0
0.125 0.75 0
0.09375 0.78125 0
0.125 0.78125 0
0.0625 0.78125 0
0.09375 0.78125 0
0.0625 0.8125 0
0.09375 0.8125 0
0.09375 0.78125 0
0.125 0.78125 0
0.09375 0.8125 0
0.125 0.8125 0
0 0.8125 0
0.03125 0.8125 0
0 0.84375 0
0.03125 0.84375 0
0.03125 0.8125 0
0.0625 0.8125 0
0.03125 0.84375 0
0.0625 0.84375 0
0 0.84375 0
0.03125 0.84375 0
0 0.875 0
0.03125 0.875 0
0.03125 0.84375 0
0.0625 0.84375 0
0.03125 0.875 0
0.0625 0.875 0
0.0625 0.8125 0
0.09375 0.8125 0
0.0625 0.84375 0
0.09375 0.84375 0
0.09375 0.8125 0
0.125 0.8125 0
0.09375 0.84375 0
0.125 0.84375 0
0.0625 0.84375 0
0.09375 0.84375 0
0.0625 0.875 0
0.09375 0.875 0
0.09375 0.84375 0
0.125 0.84375 0
0.09375 0.875 0
0.125 0.875 0
0.125 0.75 0
0.15625 0.75 0
0.125 0.78125 0
0.15625 0.78125 0
0.15625 0.75 0
0.1875 0.75 0
0.15625 0.78125 0
0.1875 0.78125 0
0.125 0.78125 0
0.15625 0.78125 0
0.125 0.8125 0
0.15625 0.8125 0
0.15625 0.78125 0
0.1875 0.78125 0
0.15625 0.8125 0
0.1875 0.8125 0
0.1875 0.75 0
0.21875 0.75 0
0.1875 0.78125 0
0.21875 0.78125 0
0.21875 0.75 0
0.25 0.75 0
0.21875 0.78125 0
0.25 0.78125 0
0.1875 0.78125 0
0.21875 0.78125 0
0.1875 0.8125 0
0.21875 0.8125 0
0.21875 0.78125 0
0.25 0.78125 0
0.21875 0.8125 0
0.25 0.8125 0
0.125 0.8125 0
0.15625 0.8125 0
0.125 0.84375 0
0.15625 0.84375 0
0.15625 0.8125 0
[...]
POINT_DATA 4096
SCALARS x_dis double 1
LOOKUP_TABLE default
-2.24347e-15 -2.24347e-15 1.8992e-15 1.89921e-15 -2.24347e-15 -2.24347e-15 1.89921e-15 1.8992e-15 1.8992e-15 1.89921e-15 2.00642e-14 2.00642e-14 1.89921e-15 1.8992e-15 2.00642e-14 2.00642e-14 -2.24347e-15 -2.24347e-15 1.8992e-15 1.89921e-15 -2.24347e-15 -2.24347e-15 1.89921e-15 1.8992e-15 1.8992e-15 1.89921e-15 2.00642e-14 2.00642e-14 1.89921e-15 1.8992e-15 2.00642e-14 2.00642e-14 2.00642e-14 2.00642e-14 -1.85649e-13 -1.85649e-13 2.00642e-14 2.00642e-14 -1.85649e-13 -1.85649e-13 -1.85649e-13 -1.85649e-13 1.13121e-12 1.13121e-12 -1.85649e-13 -1.85649e-13 1.13121e-12 1.13121e-12 2.00642e-14 2.00642e-14 -1.85649e-13 -1.85649e-13 2.00642e-14 2.00642e-14 -1.85649e-13 -1.85649e-13 -1.85649e-13 -1.85649e-13 1.13121e-12 1.13121e-12 -1.85649e-13 -1.85649e-13 1.13121e-12 1.13121e-12 -2.24347e-15 -2.24347e-15 1.8992e-15 1.8992e-15 -2.24347e-15 -2.24347e-15 1.8992e-15 1.8992e-15 1.8992e-15 1.8992e-15 2.00642e-14 2.00642e-14 1.8992e-15 1.8992e-15 2.00642e-14 2.00642e-14 -2.24347e-15 -2.24347e-15 1.8992e-15 1.8992e-15 -2.24347e-15 -2.24347e-15 1.8992e-15 1.8992e-15 1.8992e-15 1.8992e-15 2.00642e-14 2.00642e-14 1.8992e-15 1.8992e-15 2.00642e-14 2.00642e-14 2.00642e-14 2.00642e-14 -1.85649e-13 -1.85649e-13 2.00642e-14 2.00642e-14 -1.85649e-13 -1.85649e-13 -1.85649e-13 -1.85649e-13 1.13121e-12 1.13121e-12 -1.85649e-13 -1.85649e-13 1.13121e-12 1.13121e-12 2.00642e-14 2.00642e-14 -1.85649e-13 -1.85649e-13 2.00642e-14 2.00642e-14 -1.85649e-13 -1.85649e-13 -1.85649e-13 -1.85649e-13 1.13121e-12 1.13121e-12 -1.85649e-13 -1.85649e-13 1.13121e-12 1.13121e-12 1.13121e-12 1.13121e-12 -5.89499e-12 -5.89498e-12 1.13121e-12 1.13121e-12 -5.89498e-12 -5.89499e-12 -5.89499e-12 -5.89498e-12 2.80925e-11 2.80925e-11 -5.89498e-12 -5.89499e-12 2.80925e-11 2.80925e-11 1.13121e-12 1.13121e-12 -5.89499e-12 -5.89498e-12 1.13121e-12 1.13121e-12 -5.89498e-12 -5.89499e-12 -5.89499e-12 -5.89498e-12 2.80925e-11 2.80925e-11 -5.89498e-12 -5.89499e-12 2.80925e-11 2.80925e-11 2.80925e-11 2.80925e-11 -1.25541e-10 -1.25541e-10 2.80925e-11 2.80925e-11 -1.25541e-10 -1.25541e-10 -1.25541e-10 -1.25541e-10 5.30935e-10 5.30935e-10 -1.25541e-10 -1.25541e-10 5.30935e-10 5.30935e-10 2.80925e-11 2.80925e-11 -1.25541e-10 -1.25541e-10 2.80925e-11 2.80925e-11 -1.25541e-10 -1.25541e-10 -1.25541e-10 -1.25541e-10 5.30935e-10 5.30935e-10 -1.25541e-10 -1.25541e-10 5.30935e-10 5.30935e-10 1.13121e-12 1.13121e-12 -5.89499e-12 -5.89499e-12 1.13121e-12 1.13121e-12 -5.89499e-12 -5.89499e-12 -5.89499e-12 -5.89499e-12 2.80925e-11 2.80925e-11 -5.89499e-12 -5.89499e-12 2.80925e-11 2.80925e-11 1.13121e-12 1.13121e-12 -5.89499e-12 -5.89499e-12 1.13121e-12 1.13121e-12 -5.89499e-12 -5.89499e-12 -5.89499e-12 -5.89499e-12 2.80925e-11 2.80925e-11 -5.89499e-12 -5.89499e-12 2.80925e-11 2.80925e-11 2.80925e-11 2.80925e-11 -1.25541e-10 -1.25541e-10 2.80925e-11 2.80925e-11 -1.25541e-10 -1.25541e-10 -1.25541e-10 -1.25541e-10 5.30935e-10 5.30935e-10 -1.25541e-10 -1.25541e-10 5.30935e-10 5.30935e-10 2.80925e-11 2.80925e-11 -1.25541e-10 -1.25541e-10 2.80925e-11 2.80925e-11 -1.25541e-10 -1.25541e-10 -1.25541e-10 -1.25541e-10 5.30935e-10 5.30935e-10 -1.25541e-10 -1.25541e-10 5.30935e-10 5.30935e-10 -2.24347e-15 -2.24347e-15 1.8992e-15 1.8992e-15 -2.24347e-15 -2.24347e-15 1.8992e-15 1.8992e-15 1.8992e-15 1.8992e-15 2.00642e-14 2.00642e-14 1.8992e-15 1.8992e-15 2.00642e-14 2.00642e-14 -2.24347e-15 -2.24347e-15 1.8992e-15 1.89922e-15 -2.24347e-15 -2.24347e-15 1.89922e-15 1.89918e-15 1.8992e-15 1.89922e-15 2.00642e-14 2.00642e-14 1.89922e-15 1.89918e-15 2.00642e-14 2.0064e-14 2.00642e-14 2.00642e-14 -1.85649e-13 -1.85649e-13 2.00642e-14 2.00642e-14 -1.85649e-13 -1.85649e-13 -1.85649e-13 -1.85649e-13 1.13121e-12 1.13121e-12 -1.85649e-13 -1.85649e-13 1.13121e-12 1.13121e-12 2.00642e-14 2.00642e-14 -1.85649e-13 -1.85649e-13 2.00642e-14 2.0064e-14 -1.85649e-13 -1.85649e-13 -1.85649e-13 -1.85649e-13 1.13121e-12 1.13121e-12 -1.85649e-13 -1.85649e-13 1.13121e-12 1.13121e-12 -2.24347e-15 -2.24348e-15 1.89918e-15 1.89913e-15 -2.24348e-15 -2.24347e-15 1.89913e-15 1.90041e-15 1.89918e-15 1.89913e-15 2.0064e-14 2.00649e-14 1.89913e-15 1.90041e-15 2.00649e-14 2.00616e-14 -2.24347e-15 -2.24345e-15 1.90041e-15 1.89023e-15 -2.24345e-15 -2.24368e-15 1.89023e-15 1.94972e-15 1.90041e-15 1.89023e-15 2.00616e-14 2.00723e-14 1.89023e-15 1.94972e-15 2.00723e-14 2.00444e-14 2.0064e-14 2.00649e-14 -1.85649e-13 -1.85649e-13 2.00649e-14 2.00616e-14 -1.85649e-13 -1.85647e-13 -1.85649e-13 -1.85649e-13 1.13121e-12 1.13121e-12 -1.85649e-13 -1.85647e-13 1.13121e-12 1.13121e-12 2.00616e-14 2.00723e-14 -1.85647e-13 -1.85653e-13 2.00723e-14 2.00444e-14 -1.85653e-13 -1.85643e-13 -1.85647e-13 -1.85653e-13 1.13121e-12 1.13122e-12 -1.85653e-13 -1.85643e-13 1.13122e-12 1.13121e-12 1.13121e-12 1.13121e-12 -5.89499e-12 -5.89499e-12 1.13121e-12 1.13121e-12 -5.89499e-12 -5.89499e-12 -5.89499e-12 -5.89499e-12 2.80925e-11 2.80925e-11 -5.89499e-12 -5.89499e-12 2.80925e-11 2.80925e-11 1.13121e-12 1.13121e-12 -5.89499e-12 -5.89499e-12 1.13121e-12 1.13121e-12 -5.89499e-12 -5.89499e-12 -5.89499e-12 -5.89499e-12 2.80925e-11 2.80925e-11 -5.89499e-12 -5.89499e-12 2.80925e-11 2.80925e-11 2.80925e-11 2.80925e-11 -1.25541e-10 -1.25541e-10 2.80925e-11 2.80925e-11 -1.25541e-10 -1.25541e-10 -1.25541e-10 -1.25541e-10 5.30935e-10 5.30935e-10 -1.25541e-10 -1.25541e-10 5.30935e-10 5.30935e-10 2.80925e-11 2.80925e-11 -1.25541e-10 -1.25541e-10 2.80925e-11 2.80925e-11 -1.25541e-10 -1.25541e-10 -1.25541e-10 -1.25541e-10 5.30935e-10 5.30935e-10 -1.25541e-10 -1.25541e-10 5.30935e-10 5.30935e-10 1.13121e-12 1.13121e-12 -5.89499e-12 -5.89499e-12 1.13121e-12 1.13121e-12 -5.89499e-12 -5.89498e-12 -5.89499e-12 -5.89499e-12 2.80925e-11 2.80925e-11 -5.89499e-12 -5.89498e-12 2.80925e-11 2.80925e-11 1.13121e-12 1.13122e-12 -5.89498e-12 -5.89499e-12 1.13122e-12 1.13121e-12 -5.89499e-12 -5.89498e-12 -5.89498e-12 -5.89499e-12 2.80925e-11 2.80925e-11 -5.89499e-12 -5.89498e-12 2.80925e-11 2.80925e-11 2.80925e-11 2.80925e-11 -1.25541e-10 -1.25541e-10 2.80925e-11 2.80925e-11 -1.25541e-10 -1.25541e-10 -1.25541e-10 -1.25541e-10 5.30935e-10 5.30935e-10 -1.25541e-10 -1.25541e-10 5.30935e-10 5.30935e-10 2.80925e-11 2.80925e-11 -1.25541e-10 -1.25541e-10 2.80925e-11 2.80925e-11 -1.25541e-10 -1.25541e-10 -1.25541e-10 -1.25541e-10 5.30935e-10 5.30935e-10 -1.25541e-10 -1.25541e-10 5.30935e-10 5.30935e-10 5.30935e-10 5.30935e-10 -2.12408e-09 -2.12408e-09 5.30935e-10 5.30935e-10 -2.12408e-09 -2.12408e-09 -2.12408e-09 -2.12408e-09 7.9558e-09 7.9558e-09 -2.12408e-09 -2.12408e-09 7.9558e-09 7.9558e-09 5.30935e-10 5.30935e-10 -2.12408e-09 -2.12408e-09 5.30935e-10 5.30935e-10 -2.12408e-09 -2.12408e-09 -2.12408e-09 -2.12408e-09 7.9558e-09 7.9558e-09 -2.12408e-09 -2.12408e-09 7.9558e-09 7.9558e-09 7.9558e-09 7.9558e-09 -2.71353e-08 -2.71353e-08 7.9558e-09 7.9558e-09 -2.71353e-08 -2.71353e-08 -2.71353e-08 -2.71353e-08 7.81372e-08 7.81371e-08 -2.71353e-08 -2.71353e-08 7.81371e-08 7.81372e-08 7.9558e-09 7.9558e-09 -2.71353e-08 -2.71353e-08 7.9558e-09 7.9558e-09 -2.71353e-08 -2.71353e-08 -2.71353e-08 -2.71353e-08 7.81372e-08 7.81371e-08 -2.71353e-08 -2.71353e-08 7.81371e-08 7.81371e-08 5.30935e-10 5.30935e-10 -2.12408e-09 -2.12408e-09 5.30935e-10 5.30935e-10 -2.12408e-09 -2.12408e-09 -2.12408e-09 -2.12408e-09 7.9558e-09 7.9558e-09 -2.12408e-09 -2.12408e-09 7.9558e-09 7.9558e-09 5.30935e-10 5.30935e-10 -2.12408e-09 -2.12408e-09 5.30935e-10 5.30935e-10 -2.12408e-09 -2.12408e-09 -2.12408e-09 -2.12408e-09 7.9558e-09 7.9558e-09 -2.12408e-09 -2.12408e-09 7.9558e-09 7.9558e-09 7.9558e-09 7.9558e-09 -2.71353e-08 -2.71353e-08 7.9558e-09 7.9558e-09 -2.71353e-08 -2.71353e-08 -2.71353e-08 -2.71353e-08 7.81371e-08 7.81371e-08 -2.71353e-08 -2.71353e-08 7.81371e-08 7.81371e-08 7.9558e-09 7.9558e-09 -2.71353e-08 -2.71353e-08 7.9558e-09 7.9558e-09 -2.71353e-08 -2.71353e-08 -2.71353e-08 -2.71353e-08 7.81371e-08 7.81371e-08 -2.71353e-08 -2.71353e-08 7.81371e-08 7.81371e-08 7.81372e-08 7.81371e-08 -1.37649e-07 -1.37649e-07 7.81371e-08 7.81372e-08 -1.37649e-07 -1.37649e-07 -1.37649e-07 -1.37649e-07 -3.90861e-07 -3.90863e-07 -1.37649e-07 -1.37649e-07 -3.90863e-07 -3.90862e-07 7.81372e-08 7.81371e-08 -1.37649e-07 -1.37649e-07 7.81371e-08 7.81371e-08 -1.37649e-07 -1.37649e-07 -1.37649e-07 -1.37649e-07 -3.90862e-07 -3.90862e-07 -1.37649e-07 -1.37649e-07 -3.90862e-07 -3.90862e-07 -3.90861e-07 -3.90863e-07 6.42012e-06 6.42013e-06 -3.90863e-07 -3.90862e-07 6.42013e-06 6.42013e-06 6.42012e-06 6.42013e-06 -5e-05 -5e-05 6.42013e-06 6.42013e-06 -5e-05 -5e-05 -3.90862e-07 -3.90862e-07 6.42013e-06 6.42013e-06 -3.90862e-07 -3.90862e-07 6.42013e-06 6.42013e-06 6.42013e-06 6.42013e-06 -5e-05 -5e-05 6.42013e-06 6.42013e-06 -5e-05 -5e-05 7.81371e-08 7.81371e-08 -1.37649e-07 -1.37649e-07 7.81371e-08 7.81371e-08 -1.37649e-07 -1.37649e-07 -1.37649e-07 -1.37649e-07 -3.90862e-07 -3.90862e-07 -1.37649e-07 -1.37649e-07 -3.90862e-07 -3.90862e-07 7.81371e-08 7.81371e-08 -1.37649e-07 -1.37649e-07 7.81371e-08 7.81371e-08 -1.37649e-07 -1.37649e-07 -1.37649e-07 -1.37649e-07 -3.90862e-07 -3.90862e-07 -1.37649e-07 -1.37649e-07 -3.90862e-07 -3.90862e-07 -3.90862e-07 -3.90862e-07 6.42013e-06 6.42013e-06 -3.90862e-07 -3.90862e-07 6.42013e-06 6.42013e-06 6.42013e-06 6.42013e-06 -5e-05 -5e-05 6.42013e-06 6.42013e-06 -5e-05 -5e-05 -3.90862e-07 -3.90862e-07 6.42013e-06 6.42013e-06 -3.90862e-07 -3.90862e-07 6.42013e-06 6.42013e-06 6.42013e-06 6.42013e-06 -5e-05 -5e-05 6.42013e-06 6.42013e-06 -5e-05 -5e-05 5.30935e-10 5.30935e-10 -2.12408e-09 -2.12408e-09 5.30935e-10 5.30935e-10 -2.12408e-09 -2.12408e-09 -2.12408e-09 -2.12408e-09 7.9558e-09 7.9558e-09 -2.12408e-09 -2.12408e-09 7.9558e-09 7.9558e-09 5.30935e-10 5.30935e-10 -2.12408e-09 -2.12408e-09 5.30935e-10 5.30935e-10 -2.12408e-09 -2.12408e-09 -2.12408e-09 -2.12408e-09 7.9558e-09 7.9558e-09 -2.12408e-09 -2.12408e-09 7.9558e-09 7.9558e-09 7.9558e-09 7.9558e-09 -2.71353e-08 -2.71353e-08 7.9558e-09 7.9558e-09 -2.71353e-08 -2.71353e-08 -2.71353e-08 -2.71353e-08 7.81371e-08 7.81371e-08 -2.71353e-08 -2.71353e-08 7.81371e-08 7.81371e-08 7.9558e-09 7.9558e-09 -2.71353e-08 -2.71353e-08 7.9558e-09 7.9558e-09 -2.71353e-08 -2.71353e-08 -2.71353e-08 -2.71353e-08 7.81371e-08 7.81371e-08 -2.71353e-08 -2.71353e-08 7.81371e-08 7.81371e-08 5.30935e-10 5.30935e-10 -2.12408e-09 -2.12408e-09 5.30935e-10 5.30935e-10 -2.12408e-09 -2.12408e-09 -2.12408e-09 -2.12408e-09 7.9558e-09 7.9558e-09 -2.12408e-09 -2.12408e-09 7.9558e-09 7.9558e-09 5.30935e-10 5.30935e-10 -2.12408e-09 -2.12408e-09 5.30935e-10 5.30935e-10 -2.12408e-09 -2.12408e-09 -2.12408e-09 -2.12408e-09 7.9558e-09 7.9558e-09 -2.12408e-09 -2.12408e-09 7.9558e-09 7.9558e-09 7.9558e-09 7.9558e-09 -2.71353e-08 -2.71353e-08 7.9558e-09 7.9558e-09 -2.71353e-08 -2.71353e-08 -2.71353e-08 -2.71353e-08 7.81371e-08 7.81371e-08 -2.71353e-08 -2.71353e-08 7.81371e-08 7.81371e-08 7.9558e-09 7.9558e-09 -2.71353e-08 -2.71353e-08 7.9558e-09 7.9558e-09 -2.71353e-08 -2.71353e-08 -2.71353e-08 -2.71353e-08 7.81371e-08 7.81371e-08 -2.71353e-08 -2.71353e-08 7.81371e-08 7.81371e-08 7.81371e-08 7.81371e-08 -1.37649e-07 -1.37649e-07 7.81371e-08 7.81371e-08 -1.37649e-07 -1.37649e-07 -1.37649e-07 -1.37649e-07 -3.90862e-07 -3.90862e-07 -1.37649e-07 -1.37649e-07 -3.90862e-07 -3.90862e-07 7.81371e-08 7.81371e-08 -1.37649e-07 -1.37649e-07 7.81371e-08 7.81371e-08 -1.37649e-07 -1.37649e-07 -1.37649e-07 -1.37649e-07 -3.90862e-07 -3.90862e-07 -1.37649e-07 -1.37649e-07 -3.90862e-07 -3.90862e-07 -3.90862e-07 -3.90862e-07 6.42013e-06 6.42013e-06 -3.90862e-07 -3.90862e-07 6.42013e-06 6.42013e-06 6.42013e-06 6.42013e-06 -5e-05 -5e-05 6.42013e-06 6.42013e-06 -5e-05 -5e-05 -3.90862e-07 -3.90862e-07 6.42013e-06 6.42013e-06 -3.90862e-07 -3.90862e-07 6.42013e-06 6.42013e-06 6.42013e-06 6.42013e-06 -5e-05 -5e-05 6.42013e-06 6.42013e-06 -5e-05 -5e-05 7.81371e-08 7.81371e-08 -1.37649e-07 -1.37649e-07 7.81371e-08 7.81371e-08 -1.37649e-07 -1.37649e-07 -1.37649e-07 -1.37649e-07 -3.90862e-07 -3.90862e-07 -1.37649e-07 -1.37649e-07 -3.90862e-07 -3.90862e-07 7.81371e-08 7.81371e-08 -1.37649e-07 -1.37649e-07 7.81371e-08 7.81371e-08 -1.37649e-07 -1.37649e-07 -1.37649e-07 -1.37649e-07 -3.90862e-07 -3.90862e-07 -1.37649e-07 -1.37649e-07 -3.90862e-07 -3.90862e-07 -3.90862e-07 -3.90862e-07 6.42013e-06 6.42013e-06 -3.90862e-07 -3.90862e-07 6.42013e-06 6.42013e-06 6.42013e-06 6.42013e-06 -5e-05 -5e-05 6.42013e-06 6.42013e-06 -5e-05 -5e-05 -3.90862e-07 -3.90862e-07 6.42013e-06 6.42013e-06 -3.90862e-07 -3.90862e-07 6.42013e-06 6.42013e-06 6.42013e-06 6.42013e-06 -5e-05 -5e-05 6.42013e-06 6.42013e-06 -5e-05 -5e-05 -2.24368e-15 -6.12137e-15 1.94972e-15 3.33331e-15 -6.12137e-15 -3.93017e-15 3.33331e-15 2.77342e-15 1.94972e-15 3.33331e-15 2.00444e-14 1.95854e-14 3.33331e-15 2.77342e-15 1.95854e-14 1.97326e-14 -3.93017e-15 -4.6357e-15 2.77342e-15 2.9356e-15 -4.6357e-15 -4.45283e-15 2.9356e-15 2.8952e-15 2.77342e-15 2.9356e-15 1.97326e-14 1.96998e-14 2.9356e-15 2.8952e-15 1.96998e-14 1.97053e-14 2.00444e-14 1.95854e-14 -1.85643e-13 -1.85499e-13 1.95854e-14 1.97326e-14 -1.85499e-13 -1.85538e-13 -1.85643e-13 -1.85499e-13 1.13121e-12 1.13117e-12 -1.85499e-13 -1.85538e-13 1.13117e-12 1.13118e-12 1.97326e-14 1.96998e-14 -1.85538e-13 -1.85533e-13 1.96998e-14 1.97053e-14 -1.85533e-13 -1.85532e-13 -1.85538e-13 -1.85533e-13 1.13118e-12 1.13118e-12 -1.85533e-13 -1.85532e-13 1.13118e-12 1.13118e-12 -4.45283e-15 -4.49375e-15 2.8952e-15 2.90425e-15 -4.49375e-15 -4.48582e-15 2.90425e-15 2.90242e-15 2.8952e-15 2.90425e-15 1.97053e-14 1.97047e-14 2.90425e-15 2.90242e-15 1.97047e-14 1.97047e-14 -4.48582e-15 -4.48707e-15 2.90242e-15 2.90274e-15 -4.48707e-15 -4.48696e-15 2.90274e-15 2.9027e-15 2.90242e-15 2.90274e-15 1.97047e-14 1.97047e-14 2.90274e-15 2.9027e-15 1.97047e-14 1.97047e-14 1.97053e-14 1.97047e-14 -1.85532e-13 -1.85533e-13 1.97047e-14 1.97047e-14 -1.85533e-13 -1.85533e-13 -1.85532e-13 -1.85533e-13 1.13118e-12 1.13118e-12 -1.85533e-13 -1.85533e-13 1.13118e-12 1.13118e-12 1.97047e-14 1.97047e-14 -1.85533e-13 -1.85533e-13 1.97047e-14 1.97047e-14 -1.85533e-13 -1.85533e-13 -1.85533e-13 -1.85533e-13 1.13118e-12 1.13118e-12 -1.85533e-13 -1.85533e-13 1.13118e-12 1.13118e-12 1.13121e-12 1.13117e-12 -5.89498e-12 -5.89497e-12 1.13117e-12 1.13118e-12 -5.89497e-12 -5.89497e-12 -5.89498e-12 -5.89497e-12 2.80925e-11 2.80925e-11 -5.89497e-12 -5.89497e-12 2.80925e-11 2.80925e-11 1.13118e-12 1.13118e-12 -5.89497e-12 -5.89498e-12 1.13118e-12 1.13118e-12 -5.89498e-12 -5.89497e-12 -5.89497e-12 -5.89498e-12 2.80925e-11 2.80925e-11 -5.89498e-12 -5.89497e-12 2.80925e-11 2.80925e-11 2.80925e-11 2.80925e-11 -1.25541e-10 -1.25541e-10 2.80925e-11 2.80925e-11 -1.25541e-10 -1.25541e-10 -1.25541e-10 -1.25541e-10 5.30935e-10 5.30935e-10 -1.25541e-10 -1.25541e-10 5.30935e-10 5.30935e-10 2.80925e-11 2.80925e-11 -1.25541e-10 -1.25541e-10 2.80925e-11 2.80925e-11 -1.25541e-10 -1.25541e-10 -1.25541e-10 -1.25541e-10 5.30935e-10 5.30935e-10 -1.25541e-10 -1.25541e-10 5.30935e-10 5.30935e-10 1.13118e-12 1.13118e-12 -5.89497e-12 -5.89497e-12 1.13118e-12 1.13118e-12 -5.89497e-12 -5.89497e-12 -5.89497e-12 -5.89497e-12 2.80925e-11 2.80925e-11 -5.89497e-12 -5.89497e-12 2.80925e-11 2.80925e-11 1.13118e-12 1.13118e-12 -5.89497e-12 -5.89497e-12 1.13118e-12 1.13118e-12 -5.89497e-12 -5.89497e-12 -5.89497e-12 -5.89497e-12 2.80925e-11 2.80925e-11 -5.89497e-12 -5.89497e-12 2.80925e-11 2.80925e-11 2.80925e-11 2.80925e-11 -1.25541e-10 -1.25541e-10 2.80925e-11 2.80925e-11 -1.25541e-10 -1.25541e-10 -1.25541e-10 -1.25541e-10 5.30935e-10 5.30935e-10 -1.25541e-10 -1.25541e-10 5.30935e-10 5.30935e-10 2.80925e-11 2.80925e-11 -1.25541e-10 -1.25541e-10 2.80925e-11 2.80925e-11 -1.25541e-10 -1.25541e-10 -1.25541e-10 -1.25541e-10 5.30935e-10 5.30935e-10 -1.25541e-10 -1.25541e-10 5.30935e-10 5.30935e-10 -4.48696e-15 -4.48694e-15 2.9027e-15 2.9027e-15 -4.48694e-15 -4.48695e-15 2.9027e-15 2.9027e-15 2.9027e-15 2.9027e-15 1.97047e-14 1.97047e-14 2.9027e-15 2.9027e-15 1.97047e-14 1.97047e-14 -4.48695e-15 -4.48695e-15 2.9027e-15 2.9027e-15 -4.48695e-15 -4.48695e-15 2.9027e-15 2.9027e-15 2.9027e-15 2.9027e-15 1.97047e-14 1.97047e-14 2.9027e-15 2.9027e-15 1.97047e-14 1.97047e-14 1.97047e-14 1.97047e-14 -1.85533e-13 -1.85533e-13 1.97047e-14 1.97047e-14 -1.85533e-13 -1.85533e-13 -1.85533e-13 -1.85533e-13 1.13118e-12 1.13118e-12 -1.85533e-13 -1.85533e-13 1.13118e-12 1.13118e-12 1.97047e-14 1.97047e-14 -1.85533e-13 -1.85533e-13 1.97047e-14 1.97047e-14 -1.85533e-13 -1.85533e-13 -1.85533e-13 -1.85533e-13 1.13118e-12 1.13118e-12 -1.85533e-13 -1.85533e-13 1.13118e-12 1.13118e-12 -4.48695e-15 -4.48695e-15 2.9027e-15 2.9027e-15 -4.48695e-15 -4.48695e-15 2.9027e-15 2.9027e-15 2.9027e-15 2.9027e-15 1.97047e-14 1.97047e-14 2.9027e-15 2.9027e-15 1.97047e-14 1.97047e-14 -4.48695e-15 -4.48695e-15 2.9027e-15 2.9027e-15 -4.48695e-15 -4.48695e-15 2.9027e-15 2.9027e-15 2.9027e-15 2.9027e-15 1.97047e-14 1.97047e-14 2.9027e-15 2.9027e-15 1.97047e-14 1.97047e-14 1.97047e-14 1.97047e-14 -1.85533e-13 -1.85533e-13 1.97047e-14 1.97047e-14 -1.85533e-13 -1.85533e-13 -1.85533e-13 -1.85533e-13 1.13118e-12 1.13118e-12 -1.85533e-13 -1.85533e-13 1.13118e-12 1.13118e-12 1.97047e-14 1.97047e-14 -1.85533e-13 -1.85533e-13 1.97047e-14 1.97047e-14 -1.85533e-13 -1.85533e-13 -1.85533e-13 -1.85533e-13 1.13118e-12 1.13118e-12 -1.85533e-13 -1.85533e-13 1.13118e-12 1.13118e-12 1.13118e-12 1.13118e-12 -5.89497e-12 -5.89497e-12 1.13118e-12 1.13118e-12 -5.89497e-12 -5.89497e-12 -5.89497e-12 -5.89497e-12 2.80925e-11 2.80925e-11 -5.89497e-12 -5.89497e-12 2.80925e-11 2.80925e-11 1.13118e-12 1.13118e-12 -5.89497e-12 -5.89498e-12 1.13118e-12 1.13118e-12 -5.89498e-12 -5.89497e-12 -5.89497e-12 -5.89498e-12 2.80925e-11 2.80925e-11 -5.89498e-12 -5.89497e-12 2.80925e-11 2.80925e-11 2.80925e-11 2.80925e-11 -1.25541e-10 -1.25541e-10 2.80925e-11 2.80925e-11 -1.25541e-10 -1.25541e-10 -1.25541e-10 -1.25541e-10 5.30935e-10 5.30935e-10 -1.25541e-10 -1.25541e-10 5.30935e-10 5.30935e-10 2.80925e-11 2.80925e-11 -1.25541e-10 -1.25541e-10 2.80925e-11 2.80925e-11 -1.25541e-10 -1.25541e-10 -1.25541e-10 -1.25541e-10 5.30935e-10 5.30935e-10 -1.25541e-10 -1.25541e-10 5.30935e-10 5.30935e-10 1.13118e-12 1.13118e-12 -5.89497e-12 -5.89498e-12 1.13118e-12 1.13118e-12 -5.89498e-12 -5.89497e-12 -5.89497e-12 -5.89498e-12 2.80925e-11 2.80925e-11 -5.89498e-12 -5.89497e-12 2.80925e-11 2.80925e-11 1.13118e-12 1.13118e-12 -5.89497e-12 -5.89498e-12 1.13118e-12 1.13118e-12 -5.89498e-12 -5.89497e-12 -5.89497e-12 -5.89498e-12 2.80925e-11 2.80925e-11 -5.89498e-12 -5.89497e-12 2.80925e-11 2.80925e-11 2.80925e-11 2.80925e-11 -1.25541e-10 -1.25541e-10 2.80925e-11 2.80925e-11 -1.25541e-10 -1.25541e-10 -1.25541e-10 -1.25541e-10 5.30935e-10 5.30935e-10 -1.25541e-10 -1.25541e-10 5.30935e-10 5.30935e-10 2.80925e-11 2.80925e-11 -1.25541e-10 -1.25541e-10 2.80925e-11 2.80925e-11 -1.25541e-10 -1.25541e-10 -1.25541e-10 -1.25541e-10 5.30935e-10 5.30935e-10 -1.25541e-10 -1.25541e-10 5.30935e-10 5.30935e-10 5.30935e-10 5.30935e-10 -2.12408e-09 -2.12408e-09 5.30935e-10 5.30935e-10 -2.12408e-09 -2.12408e-09 -2.12408e-09 -2.12408e-09 7.9558e-09 7.9558e-09 -2.12408e-09 -2.12408e-09 7.9558e-09 7.9558e-09 5.30935e-10 5.30935e-10 -2.12408e-09 -2.12408e-09 5.30935e-10 5.30935e-10 -2.12408e-09 -2.12408e-09 -2.12408e-09 -2.12408e-09 7.9558e-09 7.9558e-09 -2.12408e-09 -2.12408e-09 7.9558e-09 7.9558e-09 7.9558e-09 7.9558e-09 -2.71353e-08 -2.71353e-08 7.9558e-09 7.9558e-09 -2.71353e-08 -2.71353e-08 -2.71353e-08 -2.71353e-08 7.81371e-08 7.81371e-08 -2.71353e-08 -2.71353e-08 7.81371e-08 7.81371e-08 7.9558e-09 7.9558e-09 -2.71353e-08 -2.71353e-08 7.9558e-09 7.9558e-09 -2.71353e-08 -2.71353e-08 -2.71353e-08 -2.71353e-08 7.81371e-08 7.81371e-08 -2.71353e-08 -2.71353e-08 7.81371e-08 7.81371e-08 5.30935e-10 5.30935e-10 -2.12408e-09 -2.12408e-09 5.30935e-10 5.30935e-10 -2.12408e-09 -2.12408e-09 -2.12408e-09 -2.12408e-09 7.9558e-09 7.9558e-09 -2.12408e-09 -2.12408e-09 7.9558e-09 7.9558e-09 5.30935e-10 5.30935e-10 -2.12408e-09 -2.12408e-09 5.30935e-10 5.30935e-10 -2.12408e-09 -2.12408e-09 -2.12408e-09 -2.12408e-09 7.95