# vtk DataFile Version 3.0
#This file was generated by the deal.II library on 2022/11/16 at 21:53:44
ASCII
DATASET UNSTRUCTURED_GRID

POINTS 4096 double
0 0.5 0
0.03125 0.5 0
0 0.53125 0
0.03125 0.53125 0
0.03125 0.5 0
0.0625 0.5 0
0.03125 0.53125 0
0.0625 0.53125 0
0 0.53125 0
0.03125 0.53125 0
0 0.5625 0
0.03125 0.5625 0
0.03125 0.53125 0
0.0625 0.53125 0
0.03125 0.5625 0
0.0625 0.5625 0
0.0625 0.5 0
0.09375 0.5 0
0.0625 0.53125 0
0.09375 0.53125 0
0.09375 0.5 0
0.125 0.5 0
0.09375 0.53125 0
0.125 0.53125 0
0.0625 0.53125 0
0.09375 0.53125 0
0.0625 0.5625 0
0.09375 0.5625 0
0.09375 0.53125 0
0.125 0.53125 0
0.09375 0.5625 0
0.125 0.5625 0
0 0.5625 0
0.03125 0.5625 0
0 0.59375 0
0.03125 0.59375 0
0.03125 0.5625 0
0.0625 0.5625 0
0.03125 0.59375 0
0.0625 0.59375 0
0 0.59375 0
0.03125 0.59375 0
0 0.625 0
0.03125 0.625 0
0.03125 0.59375 0
0.0625 0.59375 0
0.03125 0.625 0
0.0625 0.625 0
0.0625 0.5625 0
0.09375 0.5625 0
0.0625 0.59375 0
0.09375 0.59375 0
0.09375 0.5625 0
0.125 0.5625 0
0.09375 0.59375 0
0.125 0.59375 0
0.0625 0.59375 0
0.09375 0.59375 0
0.0625 0.625 0
0.09375 0.625 0
0.09375 0.59375 0
0.125 0.59375 0
0.09375 0.625 0
0.125 0.625 0
0.125 0.5 0
0.15625 0.5 0
0.125 0.53125 0
0.15625 0.53125 0
0.15625 0.5 0
0.1875 0.5 0
0.15625 0.53125 0
0.1875 0.53125 0
0.125 0.53125 0
0.15625 0.53125 0
0.125 0.5625 0
0.15625 0.5625 0
0.15625 0.53125 0
0.1875 0.53125 0
0.15625 0.5625 0
0.1875 0.5625 0
0.1875 0.5 0
0.21875 0.5 0
0.1875 0.53125 0
0.21875 0.53125 0
0.21875 0.5 0
0.25 0.5 0
0.21875 0.53125 0
0.25 0.53125 0
0.1875 0.53125 0
0.21875 0.53125 0
0.1875 0.5625 0
0.21875 0.5625 0
0.21875 0.53125 0
0.25 0.53125 0
0.21875 0.5625 0
0.25 0.5625 0
0.125 0.5625 0
0.15625 0.5625 0
0.125 0.59375 0
0.15625 0.59375 0
0.15625 0.5625 0
0.1875 0.5625 0
0.15625 0.59375 0
0.1875 0.59375 0
0.125 0.59375 0
0.15625 0.59375 0
0.125 0.625 0
0.15625 0.625 0
0.15625 0.59375 0
0.1875 0.59375 0
0.15625 0.625 0
0.1875 0.625 0
0.1875 0.5625 0
0.21875 0.5625 0
0.1875 0.59375 0
0.21875 0.59375 0
0.21875 0.5625 0
0.25 0.5625 0
0.21875 0.59375 0
0.25 0.59375 0
0.1875 0.59375 0
0.21875 0.59375 0
0.1875 0.625 0
0.21875 0.625 0
0.21875 0.59375 0
0.25 0.59375 0
0.21875 0.625 0
0.25 0.625 0
0 0.625 0
0.03125 0.625 0
0 0.65625 0
0.03125 0.65625 0
0.03125 0.625 0
0.0625 0.625 0
0.03125 0.65625 0
0.0625 0.65625 0
0 0.65625 0
0.03125 0.65625 0
0 0.6875 0
0.03125 0.6875 0
0.03125 0.65625 0
0.0625 0.65625 0
0.03125 0.6875 0
0.0625 0.6875 0
0.0625 0.625 0
0.09375 0.625 0
0.0625 0.65625 0
0.09375 0.65625 0
0.09375 0.625 0
0.125 0.625 0
0.09375 0.65625 0
0.125 0.65625 0
0.0625 0.65625 0
0.09375 0.65625 0
0.0625 0.6875 0
0.09375 0.6875 0
0.09375 0.65625 0
0.125 0.65625 0
0.09375 0.6875 0
0.125 0.6875 0
0 0.6875 0
0.03125 0.6875 0
0 0.71875 0
0.03125 0.71875 0
0.03125 0.6875 0
0.0625 0.6875 0
0.03125 0.71875 0
0.0625 0.71875 0
0 0.71875 0
0.03125 0.71875 0
0 0.75 0
0.03125 0.75 0
0.03125 0.71875 0
0.0625 0.71875 0
0.03125 0.75 0
0.0625 0.75 0
0.0625 0.6875 0
0.09375 0.6875 0
0.0625 0.71875 0
0.09375 0.71875 0
0.09375 0.6875 0
0.125 0.6875 0
0.09375 0.71875 0
0.125 0.71875 0
0.0625 0.71875 0
0.09375 0.71875 0
0.0625 0.75 0
0.09375 0.75 0
0.09375 0.71875 0
0.125 0.71875 0
0.09375 0.75 0
0.125 0.75 0
0.125 0.625 0
0.15625 0.625 0
0.125 0.65625 0
0.15625 0.65625 0
0.15625 0.625 0
0.1875 0.625 0
0.15625 0.65625 0
0.1875 0.65625 0
0.125 0.65625 0
0.15625 0.65625 0
0.125 0.6875 0
0.15625 0.6875 0
0.15625 0.65625 0
0.1875 0.65625 0
0.15625 0.6875 0
0.1875 0.6875 0
0.1875 0.625 0
0.21875 0.625 0
0.1875 0.65625 0
0.21875 0.65625 0
0.21875 0.625 0
0.25 0.625 0
0.21875 0.65625 0
0.25 0.65625 0
0.1875 0.65625 0
0.21875 0.65625 0
0.1875 0.6875 0
0.21875 0.6875 0
0.21875 0.65625 0
0.25 0.65625 0
0.21875 0.6875 0
0.25 0.6875 0
0.125 0.6875 0
0.15625 0.6875 0
0.125 0.71875 0
0.15625 0.71875 0
0.15625 0.6875 0
0.1875 0.6875 0
0.15625 0.71875 0
0.1875 0.71875 0
0.125 0.71875 0
0.15625 0.71875 0
0.125 0.75 0
0.15625 0.75 0
0.15625 0.71875 0
0.1875 0.71875 0
0.15625 0.75 0
0.1875 0.75 0
0.1875 0.6875 0
0.21875 0.6875 0
0.1875 0.71875 0
0.21875 0.71875 0
0.21875 0.6875 0
0.25 0.6875 0
0.21875 0.71875 0
0.25 0.71875 0
0.1875 0.71875 0
0.21875 0.71875 0
0.1875 0.75 0
0.21875 0.75 0
0.21875 0.71875 0
0.25 0.71875 0
0.21875 0.75 0
0.25 0.75 0
0.25 0.5 0
0.28125 0.5 0
0.25 0.53125 0
0.28125 0.53125 0
0.28125 0.5 0
0.3125 0.5 0
0.28125 0.53125 0
0.3125 0.53125 0
0.25 0.53125 0
0.28125 0.53125 0
0.25 0.5625 0
0.28125 0.5625 0
0.28125 0.53125 0
0.3125 0.53125 0
0.28125 0.5625 0
0.3125 0.5625 0
0.3125 0.5 0
0.34375 0.5 0
0.3125 0.53125 0
0.34375 0.53125 0
0.34375 0.5 0
0.375 0.5 0
0.34375 0.53125 0
0.375 0.53125 0
0.3125 0.53125 0
0.34375 0.53125 0
0.3125 0.5625 0
0.34375 0.5625 0
0.34375 0.53125 0
0.375 0.53125 0
0.34375 0.5625 0
0.375 0.5625 0
0.25 0.5625 0
0.28125 0.5625 0
0.25 0.59375 0
0.28125 0.59375 0
0.28125 0.5625 0
0.3125 0.5625 0
0.28125 0.59375 0
0.3125 0.59375 0
0.25 0.59375 0
0.28125 0.59375 0
0.25 0.625 0
0.28125 0.625 0
0.28125 0.59375 0
0.3125 0.59375 0
0.28125 0.625 0
0.3125 0.625 0
0.3125 0.5625 0
0.34375 0.5625 0
0.3125 0.59375 0
0.34375 0.59375 0
0.34375 0.5625 0
0.375 0.5625 0
0.34375 0.59375 0
0.375 0.59375 0
0.3125 0.59375 0
0.34375 0.59375 0
0.3125 0.625 0
0.34375 0.625 0
0.34375 0.59375 0
0.375 0.59375 0
0.34375 0.625 0
0.375 0.625 0
0.375 0.5 0
0.40625 0.5 0
0.375 0.53125 0
0.40625 0.53125 0
0.40625 0.5 0
0.4375 0.5 0
0.40625 0.53125 0
0.4375 0.53125 0
0.375 0.53125 0
0.40625 0.53125 0
0.375 0.5625 0
0.40625 0.5625 0
0.40625 0.53125 0
0.4375 0.53125 0
0.40625 0.5625 0
0.4375 0.5625 0
0.4375 0.5 0
0.46875 0.5 0
0.4375 0.53125 0
0.46875 0.53125 0
0.46875 0.5 0
0.5 0.5 0
0.46875 0.53125 0
0.5 0.53125 0
0.4375 0.53125 0
0.46875 0.53125 0
0.4375 0.5625 0
0.46875 0.5625 0
0.46875 0.53125 0
0.5 0.53125 0
0.46875 0.5625 0
0.5 0.5625 0
0.375 0.5625 0
0.40625 0.5625 0
0.375 0.59375 0
0.40625 0.59375 0
0.40625 0.5625 0
0.4375 0.5625 0
0.40625 0.59375 0
0.4375 0.59375 0
0.375 0.59375 0
0.40625 0.59375 0
0.375 0.625 0
0.40625 0.625 0
0.40625 0.59375 0
0.4375 0.59375 0
0.40625 0.625 0
0.4375 0.625 0
0.4375 0.5625 0
0.46875 0.5625 0
0.4375 0.59375 0
0.46875 0.59375 0
0.46875 0.5625 0
0.5 0.5625 0
0.46875 0.59375 0
0.5 0.59375 0
0.4375 0.59375 0
0.46875 0.59375 0
0.4375 0.625 0
0.46875 0.625 0
0.46875 0.59375 0
0.5 0.59375 0
0.46875 0.625 0
0.5 0.625 0
0.25 0.625 0
0.28125 0.625 0
0.25 0.65625 0
0.28125 0.65625 0
0.28125 0.625 0
0.3125 0.625 0
0.28125 0.65625 0
0.3125 0.65625 0
0.25 0.65625 0
0.28125 0.65625 0
0.25 0.6875 0
0.28125 0.6875 0
0.28125 0.65625 0
0.3125 0.65625 0
0.28125 0.6875 0
0.3125 0.6875 0
0.3125 0.625 0
0.34375 0.625 0
0.3125 0.65625 0
0.34375 0.65625 0
0.34375 0.625 0
0.375 0.625 0
0.34375 0.65625 0
0.375 0.65625 0
0.3125 0.65625 0
0.34375 0.65625 0
0.3125 0.6875 0
0.34375 0.6875 0
0.34375 0.65625 0
0.375 0.65625 0
0.34375 0.6875 0
0.375 0.6875 0
0.25 0.6875 0
0.28125 0.6875 0
0.25 0.71875 0
0.28125 0.71875 0
0.28125 0.6875 0
0.3125 0.6875 0
0.28125 0.71875 0
0.3125 0.71875 0
0.25 0.71875 0
0.28125 0.71875 0
0.25 0.75 0
0.28125 0.75 0
0.28125 0.71875 0
0.3125 0.71875 0
0.28125 0.75 0
0.3125 0.75 0
0.3125 0.6875 0
0.34375 0.6875 0
0.3125 0.71875 0
0.34375 0.71875 0
0.34375 0.6875 0
0.375 0.6875 0
0.34375 0.71875 0
0.375 0.71875 0
0.3125 0.71875 0
0.34375 0.71875 0
0.3125 0.75 0
0.34375 0.75 0
0.34375 0.71875 0
0.375 0.71875 0
0.34375 0.75 0
0.375 0.75 0
0.375 0.625 0
0.40625 0.625 0
0.375 0.65625 0
0.40625 0.65625 0
0.40625 0.625 0
0.4375 0.625 0
0.40625 0.65625 0
0.4375 0.65625 0
0.375 0.65625 0
0.40625 0.65625 0
0.375 0.6875 0
0.40625 0.6875 0
0.40625 0.65625 0
0.4375 0.65625 0
0.40625 0.6875 0
0.4375 0.6875 0
0.4375 0.625 0
0.46875 0.625 0
0.4375 0.65625 0
0.46875 0.65625 0
0.46875 0.625 0
0.5 0.625 0
0.46875 0.65625 0
0.5 0.65625 0
0.4375 0.65625 0
0.46875 0.65625 0
0.4375 0.6875 0
0.46875 0.6875 0
0.46875 0.65625 0
0.5 0.65625 0
0.46875 0.6875 0
0.5 0.6875 0
0.375 0.6875 0
0.40625 0.6875 0
0.375 0.71875 0
0.40625 0.71875 0
0.40625 0.6875 0
0.4375 0.6875 0
0.40625 0.71875 0
0.4375 0.71875 0
0.375 0.71875 0
0.40625 0.71875 0
0.375 0.75 0
0.40625 0.75 0
0.40625 0.71875 0
0.4375 0.71875 0
0.40625 0.75 0
0.4375 0.75 0
0.4375 0.6875 0
0.46875 0.6875 0
0.4375 0.71875 0
0.46875 0.71875 0
0.46875 0.6875 0
0.5 0.6875 0
0.46875 0.71875 0
0.5 0.71875 0
0.4375 0.71875 0
0.46875 0.71875 0
0.4375 0.75 0
0.46875 0.75 0
0.46875 0.71875 0
0.5 0.71875 0
0.46875 0.75 0
0.5 0.75 0
0 0.75 0
0.03125 0.75 0
0 0.78125 0
0.03125 0.78125 0
0.03125 0.75 0
0.0625 0.75 0
0.03125 0.78125 0
0.0625 0.78125 0
0 0.78125 0
0.03125 0.78125 0
0 0.8125 0
0.03125 0.8125 0
0.03125 0.78125 0
0.0625 0.78125 0
0.03125 0.8125 0
0.0625 0.8125 0
0.0625 0.75 0
0.09375 0.75 0
0.0625 0.78125 0
0.09375 0.78125 0
0.09375 0.75 0
0.125 0.75 0
0.09375 0.78125 0
0.125 0.78125 0
0.0625 0.78125 0
0.09375 0.78125 0
0.0625 0.8125 0
0.09375 0.8125 0
0.09375 0.78125 0
0.125 0.78125 0
0.09375 0.8125 0
0.125 0.8125 0
0 0.8125 0
0.03125 0.8125 0
0 0.84375 0
0.03125 0.84375 0
0.03125 0.8125 0
0.0625 0.8125 0
0.03125 0.84375 0
0.0625 0.84375 0
0 0.84375 0
0.03125 0.84375 0
0 0.875 0
0.03125 0.875 0
0.03125 0.84375 0
0.0625 0.84375 0
0.03125 0.875 0
0.0625 0.875 0
0.0625 0.8125 0
0.09375 0.8125 0
0.0625 0.84375 0
0.09375 0.84375 0
0.09375 0.8125 0
0.125 0.8125 0
0.09375 0.84375 0
0.125 0.84375 0
0.0625 0.84375 0
0.09375 0.84375 0
0.0625 0.875 0
0.09375 0.875 0
0.09375 0.84375 0
0.125 0.84375 0
0.09375 0.875 0
0.125 0.875 0
0.125 0.75 0
0.15625 0.75 0
0.125 0.78125 0
0.15625 0.78125 0
0.15625 0.75 0
0.1875 0.75 0
0.15625 0.78125 0
0.1875 0.78125 0
0.125 0.78125 0
0.15625 0.78125 0
0.125 0.8125 0
0.15625 0.8125 0
0.15625 0.78125 0
0.1875 0.78125 0
0.15625 0.8125 0
0.1875 0.8125 0
0.1875 0.75 0
0.21875 0.75 0
0.1875 0.78125 0
0.21875 0.78125 0
0.21875 0.75 0
0.25 0.75 0
0.21875 0.78125 0
0.25 0.78125 0
0.1875 0.78125 0
0.21875 0.78125 0
0.1875 0.8125 0
0.21875 0.8125 0
0.21875 0.78125 0
0.25 0.78125 0
0.21875 0.8125 0
0.25 0.8125 0
0.125 0.8125 0
0.15625 0.8125 0
0.125 0.84375 0
0.15625 0.84375 0
0.15625 0.8125 0
[...]
POINT_DATA 4096
SCALARS x_dis double 1
LOOKUP_TABLE default
-0.000461441 -0.000461395 -0.000570788 -0.000570735 -0.000461395 -0.000461362 -0.000570735 -0.000570691 -0.000570788 -0.000570735 -0.000680586 -0.000680529 -0.000570735 -0.000570691 -0.000680529 -0.000680477 -0.000461362 -0.000461339 -0.000570691 -0.000570651 -0.000461339 -0.000461322 -0.000570651 -0.000570614 -0.000570691 -0.000570651 -0.000680477 -0.000680424 -0.000570651 -0.000570614 -0.000680424 -0.000680368 -0.000680586 -0.000680529 -0.000790507 -0.000790447 -0.000680529 -0.000680477 -0.000790447 -0.000790392 -0.000790507 -0.000790447 -0.000900457 -0.000900396 -0.000790447 -0.000790392 -0.000900396 -0.00090034 -0.000680477 -0.000680424 -0.000790392 -0.00079033 -0.000680424 -0.000680368 -0.00079033 -0.00079026 -0.000790392 -0.00079033 -0.00090034 -0.000900275 -0.00079033 -0.00079026 -0.000900275 -0.000900196 -0.000461322 -0.000461309 -0.000570614 -0.000570582 -0.000461309 -0.000461301 -0.000570582 -0.000570571 -0.000570614 -0.000570582 -0.000680368 -0.000680319 -0.000570582 -0.000570571 -0.000680319 -0.000680301 -0.000461301 -0.0004613 -0.000570571 -0.000570622 -0.0004613 -0.000461314 -0.000570622 -0.000570837 -0.000570571 -0.000570622 -0.000680301 -0.000680381 -0.000570622 -0.000570837 -0.000680381 -0.000680721 -0.000680368 -0.000680319 -0.00079026 -0.000790193 -0.000680319 -0.000680301 -0.000790193 -0.000790163 -0.00079026 -0.000790193 -0.000900196 -0.000900115 -0.000790193 -0.000790163 -0.000900115 -0.000900068 -0.000680301 -0.000680381 -0.000790163 -0.000790243 -0.000680381 -0.000680721 -0.000790243 -0.000790602 -0.000790163 -0.000790243 -0.000900068 -0.000900124 -0.000790243 -0.000790602 -0.000900124 -0.000900422 -0.000900457 -0.000900396 -0.00101041 -0.00101035 -0.000900396 -0.00090034 -0.00101035 -0.0010103 -0.00101041 -0.00101035 -0.00112037 -0.00112031 -0.00101035 -0.0010103 -0.00112031 -0.00112026 -0.00090034 -0.000900275 -0.0010103 -0.00101024 -0.000900275 -0.000900196 -0.00101024 -0.00101016 -0.0010103 -0.00101024 -0.00112026 -0.00112021 -0.00101024 -0.00101016 -0.00112021 -0.00112013 -0.00112037 -0.00112031 -0.00123033 -0.00123027 -0.00112031 -0.00112026 -0.00123027 -0.00123023 -0.00123033 -0.00123027 -0.0013403 -0.00134024 -0.00123027 -0.00123023 -0.00134024 -0.00134019 -0.00112026 -0.00112021 -0.00123023 -0.00123018 -0.00112021 -0.00112013 -0.00123018 -0.00123012 -0.00123023 -0.00123018 -0.00134019 -0.00134015 -0.00123018 -0.00123012 -0.00134015 -0.00134011 -0.000900196 -0.000900115 -0.00101016 -0.00101007 -0.000900115 -0.000900068 -0.00101007 -0.00101 -0.00101016 -0.00101007 -0.00112013 -0.00112004 -0.00101007 -0.00101 -0.00112004 -0.00111995 -0.000900068 -0.000900124 -0.00101 -0.00101001 -0.000900124 -0.000900422 -0.00101001 -0.00101022 -0.00101 -0.00101001 -0.00111995 -0.00111992 -0.00101001 -0.00101022 -0.00111992 -0.00112002 -0.00112013 -0.00112004 -0.00123012 -0.00123003 -0.00112004 -0.00111995 -0.00123003 -0.00122994 -0.00123012 -0.00123003 -0.00134011 -0.00134004 -0.00123003 -0.00122994 -0.00134004 -0.00133995 -0.00111995 -0.00111992 -0.00122994 -0.00122986 -0.00111992 -0.00112002 -0.00122986 -0.00122987 -0.00122994 -0.00122986 -0.00133995 -0.00133985 -0.00122986 -0.00122987 -0.00133985 -0.00133979 -0.000461314 -0.000461343 -0.000570837 -0.000571411 -0.000461343 -0.000461377 -0.000571411 -0.000572638 -0.000570837 -0.000571411 -0.000680721 -0.000681633 -0.000571411 -0.000572638 -0.000681633 -0.000683598 -0.000461377 -0.000461399 -0.000572638 -0.000574928 -0.000461399 -0.000461381 -0.000574928 -0.000578901 -0.000572638 -0.000574928 -0.000683598 -0.000687261 -0.000574928 -0.000578901 -0.000687261 -0.000693487 -0.000680721 -0.000681633 -0.000790602 -0.000791565 -0.000681633 -0.000683598 -0.000791565 -0.000793629 -0.000790602 -0.000791565 -0.000900422 -0.000901222 -0.000791565 -0.000793629 -0.000901222 -0.0009029 -0.000683598 -0.000687261 -0.000793629 -0.00079741 -0.000687261 -0.000693487 -0.00079741 -0.000803599 -0.000793629 -0.00079741 -0.0009029 -0.000905872 -0.00079741 -0.000803599 -0.000905872 -0.000910465 -0.000461381 -0.000461297 -0.000578901 -0.000585634 -0.000461297 -0.000461102 -0.000585634 -0.000597423 -0.000578901 -0.000585634 -0.000693487 -0.000703541 -0.000585634 -0.000597423 -0.000703541 -0.000719214 -0.000461102 -0.000460583 -0.000597423 -0.000619437 -0.000460583 -0.000459882 -0.000619437 -0.000668729 -0.000597423 -0.000619437 -0.000719214 -0.000743046 -0.000619437 -0.000668729 -0.000743046 -0.000767382 -0.000693487 -0.000703541 -0.000803599 -0.000812868 -0.000703541 -0.000719214 -0.000812868 -0.00082563 -0.000803599 -0.000812868 -0.000910465 -0.000916745 -0.000812868 -0.00082563 -0.000916745 -0.000924114 -0.000719214 -0.000743046 -0.00082563 -0.000840124 -0.000743046 -0.000767382 -0.000840124 -0.000854278 -0.00082563 -0.000840124 -0.000924114 -0.000931397 -0.000840124 -0.000854278 -0.000931397 -0.00093708 -0.000900422 -0.000901222 -0.00101022 -0.00101078 -0.000901222 -0.0009029 -0.00101078 -0.00101191 -0.00101022 -0.00101078 -0.00112002 -0.00112036 -0.00101078 -0.00101191 -0.00112036 -0.00112104 -0.0009029 -0.000905872 -0.00101191 -0.00101381 -0.000905872 -0.000910465 -0.00101381 -0.00101647 -0.00101191 -0.00101381 -0.00112104 -0.0011221 -0.00101381 -0.00101647 -0.0011221 -0.00112339 -0.00112002 -0.00112036 -0.00122987 -0.00123003 -0.00112036 -0.00112104 -0.00123003 -0.0012304 -0.00122987 -0.00123003 -0.00133979 -0.00133981 -0.00123003 -0.0012304 -0.00133981 -0.00133995 -0.00112104 -0.0011221 -0.0012304 -0.00123097 -0.0011221 -0.00112339 -0.00123097 -0.0012316 -0.0012304 -0.00123097 -0.00133995 -0.00134024 -0.00123097 -0.0012316 -0.00134024 -0.00134061 -0.000910465 -0.000916745 -0.00101647 -0.00101961 -0.000916745 -0.000924114 -0.00101961 -0.00102259 -0.00101647 -0.00101961 -0.00112339 -0.00112451 -0.00101961 -0.00102259 -0.00112451 -0.00112493 -0.000924114 -0.000931397 -0.00102259 -0.00102452 -0.000931397 -0.00093708 -0.00102452 -0.0010248 -0.00102259 -0.00102452 -0.00112493 -0.00112412 -0.00102452 -0.0010248 -0.00112412 -0.00112184 -0.00112339 -0.00112451 -0.0012316 -0.00123197 -0.00112451 -0.00112493 -0.00123197 -0.00123167 -0.0012316 -0.00123197 -0.00134061 -0.00134088 -0.00123197 -0.00123167 -0.00134088 -0.00134083 -0.00112493 -0.00112412 -0.00123167 -0.00123039 -0.00112412 -0.00112184 -0.00123039 -0.00122809 -0.00123167 -0.00123039 -0.00134083 -0.00134027 -0.00123039 -0.00122809 -0.00134027 -0.00133921 -0.0013403 -0.00134024 -0.00145027 -0.00145021 -0.00134024 -0.00134019 -0.00145021 -0.00145016 -0.00145027 -0.00145021 -0.00156024 -0.00156018 -0.00145021 -0.00145016 -0.00156018 -0.00156013 -0.00134019 -0.00134015 -0.00145016 -0.00145013 -0.00134015 -0.00134011 -0.00145013 -0.00145009 -0.00145016 -0.00145013 -0.00156013 -0.0015601 -0.00145013 -0.00145009 -0.0015601 -0.00156007 -0.00156024 -0.00156018 -0.00167023 -0.00167016 -0.00156018 -0.00156013 -0.00167016 -0.00167011 -0.00167023 -0.00167016 -0.00178021 -0.00178014 -0.00167016 -0.00167011 -0.00178014 -0.00178009 -0.00156013 -0.0015601 -0.00167011 -0.00167008 -0.0015601 -0.00156007 -0.00167008 -0.00167005 -0.00167011 -0.00167008 -0.00178009 -0.00178006 -0.00167008 -0.00167005 -0.00178006 -0.00178003 -0.00134011 -0.00134004 -0.00145009 -0.00145004 -0.00134004 -0.00133995 -0.00145004 -0.00144997 -0.00145009 -0.00145004 -0.00156007 -0.00156004 -0.00145004 -0.00144997 -0.00156004 -0.00155999 -0.00133995 -0.00133985 -0.00144997 -0.00144988 -0.00133985 -0.00133979 -0.00144988 -0.0014498 -0.00144997 -0.00144988 -0.00155999 -0.00155992 -0.00144988 -0.0014498 -0.00155992 -0.00155985 -0.00156007 -0.00156004 -0.00167005 -0.00167003 -0.00156004 -0.00155999 -0.00167003 -0.00167 -0.00167005 -0.00167003 -0.00178003 -0.00178002 -0.00167003 -0.00167 -0.00178002 -0.00178 -0.00155999 -0.00155992 -0.00167 -0.00166995 -0.00155992 -0.00155985 -0.00166995 -0.0016699 -0.00167 -0.00166995 -0.00178 -0.00177997 -0.00166995 -0.0016699 -0.00177997 -0.00177994 -0.00178021 -0.00178014 -0.0018902 -0.00189013 -0.00178014 -0.00178009 -0.00189013 -0.00189008 -0.0018902 -0.00189013 -0.00200019 -0.00200011 -0.00189013 -0.00189008 -0.00200011 -0.00200006 -0.00178009 -0.00178006 -0.00189008 -0.00189004 -0.00178006 -0.00178003 -0.00189004 -0.00189002 -0.00189008 -0.00189004 -0.00200006 -0.00200003 -0.00189004 -0.00189002 -0.00200003 -0.00200001 -0.00200019 -0.00200011 -0.00211015 -0.00211008 -0.00200011 -0.00200006 -0.00211008 -0.00211004 -0.00211015 -0.00211008 -0.00222 -0.00222 -0.00211008 -0.00211004 -0.00222 -0.00222 -0.00200006 -0.00200003 -0.00211004 -0.00211001 -0.00200003 -0.00200001 -0.00211001 -0.00211 -0.00211004 -0.00211001 -0.00222 -0.00222 -0.00211001 -0.00211 -0.00222 -0.00222 -0.00178003 -0.00178002 -0.00189002 -0.00189 -0.00178002 -0.00178 -0.00189 -0.00188999 -0.00189002 -0.00189 -0.00200001 -0.002 -0.00189 -0.00188999 -0.002 -0.00199999 -0.00178 -0.00177997 -0.00188999 -0.00188998 -0.00177997 -0.00177994 -0.00188998 -0.00188996 -0.00188999 -0.00188998 -0.00199999 -0.00199999 -0.00188998 -0.00188996 -0.00199999 -0.00199998 -0.00200001 -0.002 -0.00211 -0.00210999 -0.002 -0.00199999 -0.00210999 -0.00210999 -0.00211 -0.00210999 -0.00222 -0.00222 -0.00210999 -0.00210999 -0.00222 -0.00222 -0.00199999 -0.00199999 -0.00210999 -0.00210999 -0.00199999 -0.00199998 -0.00210999 -0.00211 -0.00210999 -0.00210999 -0.00222 -0.00222 -0.00210999 -0.00211 -0.00222 -0.00222 -0.00133979 -0.00133981 -0.0014498 -0.00144973 -0.00133981 -0.00133995 -0.00144973 -0.00144972 -0.0014498 -0.00144973 -0.00155985 -0.00155977 -0.00144973 -0.00144972 -0.00155977 -0.0015597 -0.00133995 -0.00134024 -0.00144972 -0.0014498 -0.00134024 -0.00134061 -0.0014498 -0.00144997 -0.00144972 -0.0014498 -0.0015597 -0.00155965 -0.0014498 -0.00144997 -0.00155965 -0.00155965 -0.00155985 -0.00155977 -0.0016699 -0.00166984 -0.00155977 -0.0015597 -0.00166984 -0.00166978 -0.0016699 -0.00166984 -0.00177994 -0.0017799 -0.00166984 -0.00166978 -0.0017799 -0.00177986 -0.0015597 -0.00155965 -0.00166978 -0.00166972 -0.00155965 -0.00155965 -0.00166972 -0.00166966 -0.00166978 -0.00166972 -0.00177986 -0.00177983 -0.00166972 -0.00166966 -0.00177983 -0.0017798 -0.00134061 -0.00134088 -0.00144997 -0.00145019 -0.00134088 -0.00134083 -0.00145019 -0.00145038 -0.00144997 -0.00145019 -0.00155965 -0.00155971 -0.00145019 -0.00145038 -0.00155971 -0.00155983 -0.00134083 -0.00134027 -0.00145038 -0.00145046 -0.00134027 -0.00133921 -0.00145046 -0.00145043 -0.00145038 -0.00145046 -0.00155983 -0.00156001 -0.00145046 -0.00145043 -0.00156001 -0.00156021 -0.00155965 -0.00155971 -0.00166966 -0.00166962 -0.00155971 -0.00155983 -0.00166962 -0.00166961 -0.00166966 -0.00166962 -0.0017798 -0.00177977 -0.00166962 -0.00166961 -0.00177977 -0.00177975 -0.00155983 -0.00156001 -0.00166961 -0.00166965 -0.00156001 -0.00156021 -0.00166965 -0.00166971 -0.00166961 -0.00166965 -0.00177975 -0.00177974 -0.00166965 -0.00166971 -0.00177974 -0.00177974 -0.00177994 -0.0017799 -0.00188996 -0.00188994 -0.0017799 -0.00177986 -0.00188994 -0.00188992 -0.00188996 -0.00188994 -0.00199998 -0.00199997 -0.00188994 -0.00188992 -0.00199997 -0.00199996 -0.00177986 -0.00177983 -0.00188992 -0.0018899 -0.00177983 -0.0017798 -0.0018899 -0.00188988 -0.00188992 -0.0018899 -0.00199996 -0.00199995 -0.0018899 -0.00188988 -0.00199995 -0.00199994 -0.00199998 -0.00199997 -0.00211 -0.00211 -0.00199997 -0.00199996 -0.00211 -0.00211 -0.00211 -0.00211 -0.00222 -0.00222 -0.00211 -0.00211 -0.00222 -0.00222 -0.00199996 -0.00199995 -0.00211 -0.00210999 -0.00199995 -0.00199994 -0.00210999 -0.00210998 -0.00211 -0.00210999 -0.00222 -0.00222 -0.00210999 -0.00210998 -0.00222 -0.00222 -0.0017798 -0.00177977 -0.00188988 -0.00188988 -0.00177977 -0.00177975 -0.00188988 -0.00188989 -0.00188988 -0.00188988 -0.00199994 -0.00199994 -0.00188988 -0.00188989 -0.00199994 -0.00199994 -0.00177975 -0.00177974 -0.00188989 -0.0018899 -0.00177974 -0.00177974 -0.0018899 -0.00188993 -0.00188989 -0.0018899 -0.00199994 -0.00199995 -0.0018899 -0.00188993 -0.00199995 -0.00199996 -0.00199994 -0.00199994 -0.00210998 -0.00210998 -0.00199994 -0.00199994 -0.00210998 -0.00210997 -0.00210998 -0.00210998 -0.00222 -0.00222 -0.00210998 -0.00210997 -0.00222 -0.00222 -0.00199994 -0.00199995 -0.00210997 -0.00210996 -0.00199995 -0.00199996 -0.00210996 -0.00210996 -0.00210997 -0.00210996 -0.00222 -0.00222 -0.00210996 -0.00210996 -0.00222 -0.00222 -0.000459882 -0.000637292 -0.000668729 -0.000706622 -0.000637292 -0.00073804 -0.000706622 -0.00076018 -0.000668729 -0.000706622 -0.000767382 -0.000792151 -0.000706622 -0.00076018 -0.000792151 -0.000815095 -0.00073804 -0.000801274 -0.00076018 -0.000808016 -0.000801274 -0.000843643 -0.000808016 -0.000845529 -0.00076018 -0.000808016 -0.000815095 -0.000841756 -0.000808016 -0.000845529 -0.000841756 -0.000867077 -0.000767382 -0.000792151 -0.000854278 -0.000865874 -0.000792151 -0.000815095 -0.000865874 -0.000877153 -0.000854278 -0.000865874 -0.00093708 -0.000940934 -0.000865874 -0.000877153 -0.000940934 -0.000943916 -0.000815095 -0.000841756 -0.000877153 -0.00088943 -0.000841756 -0.000867077 -0.00088943 -0.00090298 -0.000877153 -0.00088943 -0.000943916 -0.00094767 -0.00088943 -0.00090298 -0.00094767 -0.000952745 -0.000843643 -0.000872117 -0.000845529 -0.000873582 -0.000872117 -0.00089112 -0.000873582 -0.000893823 -0.000845529 -0.000873582 -0.000867077 -0.000888446 -0.000873582 -0.000893823 -0.000888446 -0.000905052 -0.00089112 -0.000903977 -0.000893823 -0.00090778 -0.000903977 -0.000912911 -0.00090778 -0.00091676 -0.000893823 -0.00090778 -0.000905052 -0.000916888 -0.00090778 -0.00091676 -0.000916888 -0.000924411 -0.000867077 -0.000888446 -0.00090298 -0.000915966 -0.000888446 -0.000905052 -0.000915966 -0.000926979 -0.00090298 -0.000915966 -0.000952745 -0.000958728 -0.000915966 -0.000926979 -0.000958728 -0.000964607 -0.000905052 -0.000916888 -0.000926979 -0.000935244 -0.000916888 -0.000924411 -0.000935244 -0.000940616 -0.000926979 -0.000935244 -0.000964607 -0.000969488 -0.000935244 -0.000940616 -0.000969488 -0.000972894 -0.00093708 -0.000940934 -0.0010248 -0.00102352 -0.000940934 -0.000943916 -0.00102352 -0.00102165 -0.0010248 -0.00102352 -0.00112184 -0.00111844 -0.00102352 -0.00102165 -0.00111844 -0.00111476 -0.000943916 -0.00094767 -0.00102165 -0.0010204 -0.00094767 -0.000952745 -0.0010204 -0.0010206 -0.00102165 -0.0010204 -0.00111476 -0.00111179 -0.0010204 -0.0010206 -0.00111179 -0.00111024 -0.00112184 -0.00111844 -0.00122809 -0.00122512 -0.00111844 -0.00111476 -0.00122512 -0.00122215 -0.00122809 -0.00122512 -0.00133921 -0.00133787 -0.00122512 -0.00122215 -0.00133787 -0.00133664 -0.00111476 -0.00111179 -0.00122215 -0.00121986 -0.00111179 -0.00111024 -0.00121986 -0.00121873 -0.00122215 -0.00121986 -0.00133664 -0.00133589 -0.00121986 -0.00121873 -0.00133589 -0.00133578 -0.000952745 -0.000958728 -0.0010206 -0.00102225 -0.000958728 -0.000964607 -0.00102225 -0.00102478 -0.0010206 -0.00102225 -0.00111024 -0.00111023 -0.00102225 -0.00102478 -0.00111023 -0.00111131 -0.000964607 -0.000969488 -0.00102478 -0.00102739 -0.000969488 -0.000972894 -0.00102739 -0.00102947 -0.00102478 -0.00102739 -0.00111131 -0.00111281 -0.00102739 -0.00102947 -0.00111281 -0.00111411 -0.00111024 -0.00111023 -0.00121873 -0.00121874 -0.00111023 -0.00111131 -0.00121874 -0.00121952 -0.00121873 -0.00121874 -0.00133578 -0.0013362 -0.00121874 -0.00121952 -0.0013362 -0.00133686 -0.00111131 -0.00111281 -0.00121952 -0.00122051 -0.00111281 -0.00111411 -0.00122051 -0.00122128 -0.00121952 -0.00122051 -0.00133686 -0.00133744 -0.00122051 -0.00122128 -0.00133744 -0.00133776 -0.000912911 -0.000918926 -0.00091676 -0.000921924 -0.000918926 -0.000922345 -0.000921924 -0.000924358 -0.00091676 -0.000921924 -0.000924411 -0.000928481 -0.000921924 -0.000924358 -0.000928481 -0.000930193 -0.000922345 -0.00092361 -0.000924358 -0.000925051 -0.00092361 -0.000923552 -0.000925051 -0.000924833 -0.000924358 -0.000925051 -0.000930193 -0.000930569 -0.000925051 -0.000924833 -0.000930569 -0.000930347 -0.000924411 -0.000928481 -0.000940616 -0.000943519 -0.000928481 -0.000930193 -0.000943519 -0.000944726 -0.000940616 -0.000943519 -0.000972894 -0.000974848 -0.000943519 -0.000944726 -0.000974848 -0.000975722 -0.000930193 -0.000930569 -0.000944726 -0.000945 -0.000930569 -0.000930347 -0.000945 -0.000944858 -0.000944726 -0.000945 -0.000975722 -0.00097595 -0.000945 -0.000944858 -0.00097595 -0.000975843 -0.000923552 -0.000923013 -0.000924833 -0.000924316 -0.000923013 -0.000922486 -0.000924316 -0.000923864 -0.000924833 -0.000924316 -0.000930347 -0.000929961 -0.000924316 -0.000923864 -0.000929961 -0.000929631 -0.000922486 -0.000922143 -0.000923864 -0.000923604 -0.000922143 -0.000922025 -0.000923604 -0.000923525 -0.000923864 -0.000923604 -0.000929631 -0.000929437 -0.000923604 -0.000923525 -0.000929437 -0.000929376 -0.000930347 -0.000929961 -0.000944858 -0.000944578 -0.000929961 -0.000929631 -0.000944578 -0.000944305 -0.000944858 -0.000944578 -0.000975843 -0.000975592 -0.000944578 -0.000944305 -0.000975592 -0.000975328 -0.000929631 -0.000929437 -0.000944305 -0.00094412 -0.000929437 -0.000929376 -0.00094412 -0.000944054 -0.000944305 -0.00094412 -0.000975328 -0.000975139 -0.00094412 -0.000944054 -0.000975139 -0.000975065 -0.000972894 -0.000974848 -0.00102947 -0.00103077 -0.000974848 -0.000975722 -0.00103077 -0.00103137 -0.00102947 -0.00103077 -0.00111411 -0.00111493 -0.00103077 -0.00103137 -0.00111493 -0.00111525 -0.000975722 -0.00097595 -0.00103137 -0.0010315 -0.00097595 -0.000975843 -0.0010315 -0.00103134 -0.00103137 -0.0010315 -0.00111525 -0.00111521 -0.0010315 -0.00103134 -0.00111521 -0.001115 -0.00111411 -0.00111493 -0.00122128 -0.00122167 -0.00111493 -0.00111525 -0.00122167 -0.00122172 -0.00122128 -0.00122167 -0.00133776 -0.00133781 -0.00122167 -0.00122172 -0.00133781 -0.00133769 -0.00111525 -0.00111521 -0.00122172 -0.00122156 -0.00111521 -0.001115 -0.00122156 -0.00122134 -0.00122172 -0.00122156 -0.00133769 -0.00133751 -0.00122156 -0.00122134 -0.00133751 -0.00133734 -0.000975843 -0.000975592 -0.00103134 -0.00103108 -0.000975592 -0.000975328 -0.00103108 -0.00103084 -0.00103134 -0.00103108 -0.001115 -0.00111475 -0.00103108 -0.00103084 -0.00111475 -0.00111456 -0.000975328 -0.000975139 -0.00103084 -0.00103067 -0.000975139 -0.000975065 -0.00103067 -0.0010306 -0.00103084 -0.00103067 -0.00111456 -0.00111444 -0.00103067 -0.0010306 -0.00111444 -0.00111436 -0.001115 -0.00111475 -0.00122134 -0.00122115 -0.00111475 -0.00111456 -0.00122115 -0.00122101 -0.00122134 -0.00122115 -0.00133734 -0.00133721 -0.00122115 -0.00122101 -0.00133721 -0.00133712 -0.00111456 -0.00111444 -0.00122101 -0.00122093 -0.00111444 -0.00111436 -0.00122093 -0.00122085 -0.00122101 -0.00122093 -0.00133712 -0.00133706 -0.00122093 -0.00122085 -0.00133706 -0.00133699 -0.00133921 -0.00133787 -0.00145043 -0.00145035 -0.00133787 -0.00133664 -0.00145035 -0.00145036 -0.00145043 -0.00145035 -0.00156021 -0.00156045 -0.00145035 -0.00145036 -0.00156045 -0.00156072 -0.00133664 -0.00133589 -0.00145036 -0.00145056 -0.00133589 -0.00133578 -0.00145056 -0.00145093 -0.00145036 -0.00145056 -0.00156072 -0.00156099 -0.00145056 -0.00145093 -0.00156099 -0.00156123 -0.00156021 -0.00156045 -0.00166971 -0.0016698 -0.00156045 -0.00156072 -0.0016698 -0.00166989 -0.00166971 -0.0016698 -0.00177974 -0.00177975 -0.0016698 -0.00166989 -0.00177975 -0.00177975 -0.00156072 -0.00156099 -0.00166989 -0.00166995 -0.00156099 -0.00156123 -0.00166995 -0.00166998 -0.00166989 -0.00166995 -0.00177975 -0.00177976 -0.00166995 -0.00166998 -0.00177976 -0.00177975 -0.00133578 -0.0013362 -0.00145093 -0.00145137 -0.0013362 -0.00133686 -0.00145137 -0.00145172 -0.00145093 -0.00145137 -0.00156123 -0.00156138 -0.00145137 -0.00145172 -0.00156138 -0.00156142 -0.00133686 -0.00133744 -0.00145172 -0.0014519 -0.00133744 -0.00133776 -0.0014519 -0.0014519 -0.00145172 -0.0014519 -0.00156142 -0.00156137 -0.0014519 -0.0014519 -0.00156137 -0.00156128 -0.00156123 -0.00156138 -0.00166998 -0.00166995 -0.00156138 -0.00156142 -0.00166995 -0.0016699 -0.00166998 -0.00166995 -0.00177975 -0.00177973 -0.00166995 -0.0016699 -0.00177