# vtk DataFile Version 3.0
#This file was generated by the deal.II library on 2022/11/16 at 21:25:10
ASCII
DATASET UNSTRUCTURED_GRID

POINTS 4096 double
0 0.5 0
0.03125 0.5 0
0 0.53125 0
0.03125 0.53125 0
0.03125 0.5 0
0.0625 0.5 0
0.03125 0.53125 0
0.0625 0.53125 0
0 0.53125 0
0.03125 0.53125 0
0 0.5625 0
0.03125 0.5625 0
0.03125 0.53125 0
0.0625 0.53125 0
0.03125 0.5625 0
0.0625 0.5625 0
0.0625 0.5 0
0.09375 0.5 0
0.0625 0.53125 0
0.09375 0.53125 0
0.09375 0.5 0
0.125 0.5 0
0.09375 0.53125 0
0.125 0.53125 0
0.0625 0.53125 0
0.09375 0.53125 0
0.0625 0.5625 0
0.09375 0.5625 0
0.09375 0.53125 0
0.125 0.53125 0
0.09375 0.5625 0
0.125 0.5625 0
0 0.5625 0
0.03125 0.5625 0
0 0.59375 0
0.03125 0.59375 0
0.03125 0.5625 0
0.0625 0.5625 0
0.03125 0.59375 0
0.0625 0.59375 0
0 0.59375 0
0.03125 0.59375 0
0 0.625 0
0.03125 0.625 0
0.03125 0.59375 0
0.0625 0.59375 0
0.03125 0.625 0
0.0625 0.625 0
0.0625 0.5625 0
0.09375 0.5625 0
0.0625 0.59375 0
0.09375 0.59375 0
0.09375 0.5625 0
0.125 0.5625 0
0.09375 0.59375 0
0.125 0.59375 0
0.0625 0.59375 0
0.09375 0.59375 0
0.0625 0.625 0
0.09375 0.625 0
0.09375 0.59375 0
0.125 0.59375 0
0.09375 0.625 0
0.125 0.625 0
0.125 0.5 0
0.15625 0.5 0
0.125 0.53125 0
0.15625 0.53125 0
0.15625 0.5 0
0.1875 0.5 0
0.15625 0.53125 0
0.1875 0.53125 0
0.125 0.53125 0
0.15625 0.53125 0
0.125 0.5625 0
0.15625 0.5625 0
0.15625 0.53125 0
0.1875 0.53125 0
0.15625 0.5625 0
0.1875 0.5625 0
0.1875 0.5 0
0.21875 0.5 0
0.1875 0.53125 0
0.21875 0.53125 0
0.21875 0.5 0
0.25 0.5 0
0.21875 0.53125 0
0.25 0.53125 0
0.1875 0.53125 0
0.21875 0.53125 0
0.1875 0.5625 0
0.21875 0.5625 0
0.21875 0.53125 0
0.25 0.53125 0
0.21875 0.5625 0
0.25 0.5625 0
0.125 0.5625 0
0.15625 0.5625 0
0.125 0.59375 0
0.15625 0.59375 0
0.15625 0.5625 0
0.1875 0.5625 0
0.15625 0.59375 0
0.1875 0.59375 0
0.125 0.59375 0
0.15625 0.59375 0
0.125 0.625 0
0.15625 0.625 0
0.15625 0.59375 0
0.1875 0.59375 0
0.15625 0.625 0
0.1875 0.625 0
0.1875 0.5625 0
0.21875 0.5625 0
0.1875 0.59375 0
0.21875 0.59375 0
0.21875 0.5625 0
0.25 0.5625 0
0.21875 0.59375 0
0.25 0.59375 0
0.1875 0.59375 0
0.21875 0.59375 0
0.1875 0.625 0
0.21875 0.625 0
0.21875 0.59375 0
0.25 0.59375 0
0.21875 0.625 0
0.25 0.625 0
0 0.625 0
0.03125 0.625 0
0 0.65625 0
0.03125 0.65625 0
0.03125 0.625 0
0.0625 0.625 0
0.03125 0.65625 0
0.0625 0.65625 0
0 0.65625 0
0.03125 0.65625 0
0 0.6875 0
0.03125 0.6875 0
0.03125 0.65625 0
0.0625 0.65625 0
0.03125 0.6875 0
0.0625 0.6875 0
0.0625 0.625 0
0.09375 0.625 0
0.0625 0.65625 0
0.09375 0.65625 0
0.09375 0.625 0
0.125 0.625 0
0.09375 0.65625 0
0.125 0.65625 0
0.0625 0.65625 0
0.09375 0.65625 0
0.0625 0.6875 0
0.09375 0.6875 0
0.09375 0.65625 0
0.125 0.65625 0
0.09375 0.6875 0
0.125 0.6875 0
0 0.6875 0
0.03125 0.6875 0
0 0.71875 0
0.03125 0.71875 0
0.03125 0.6875 0
0.0625 0.6875 0
0.03125 0.71875 0
0.0625 0.71875 0
0 0.71875 0
0.03125 0.71875 0
0 0.75 0
0.03125 0.75 0
0.03125 0.71875 0
0.0625 0.71875 0
0.03125 0.75 0
0.0625 0.75 0
0.0625 0.6875 0
0.09375 0.6875 0
0.0625 0.71875 0
0.09375 0.71875 0
0.09375 0.6875 0
0.125 0.6875 0
0.09375 0.71875 0
0.125 0.71875 0
0.0625 0.71875 0
0.09375 0.71875 0
0.0625 0.75 0
0.09375 0.75 0
0.09375 0.71875 0
0.125 0.71875 0
0.09375 0.75 0
0.125 0.75 0
0.125 0.625 0
0.15625 0.625 0
0.125 0.65625 0
0.15625 0.65625 0
0.15625 0.625 0
0.1875 0.625 0
0.15625 0.65625 0
0.1875 0.65625 0
0.125 0.65625 0
0.15625 0.65625 0
0.125 0.6875 0
0.15625 0.6875 0
0.15625 0.65625 0
0.1875 0.65625 0
0.15625 0.6875 0
0.1875 0.6875 0
0.1875 0.625 0
0.21875 0.625 0
0.1875 0.65625 0
0.21875 0.65625 0
0.21875 0.625 0
0.25 0.625 0
0.21875 0.65625 0
0.25 0.65625 0
0.1875 0.65625 0
0.21875 0.65625 0
0.1875 0.6875 0
0.21875 0.6875 0
0.21875 0.65625 0
0.25 0.65625 0
0.21875 0.6875 0
0.25 0.6875 0
0.125 0.6875 0
0.15625 0.6875 0
0.125 0.71875 0
0.15625 0.71875 0
0.15625 0.6875 0
0.1875 0.6875 0
0.15625 0.71875 0
0.1875 0.71875 0
0.125 0.71875 0
0.15625 0.71875 0
0.125 0.75 0
0.15625 0.75 0
0.15625 0.71875 0
0.1875 0.71875 0
0.15625 0.75 0
0.1875 0.75 0
0.1875 0.6875 0
0.21875 0.6875 0
0.1875 0.71875 0
0.21875 0.71875 0
0.21875 0.6875 0
0.25 0.6875 0
0.21875 0.71875 0
0.25 0.71875 0
0.1875 0.71875 0
0.21875 0.71875 0
0.1875 0.75 0
0.21875 0.75 0
0.21875 0.71875 0
0.25 0.71875 0
0.21875 0.75 0
0.25 0.75 0
0.25 0.5 0
0.28125 0.5 0
0.25 0.53125 0
0.28125 0.53125 0
0.28125 0.5 0
0.3125 0.5 0
0.28125 0.53125 0
0.3125 0.53125 0
0.25 0.53125 0
0.28125 0.53125 0
0.25 0.5625 0
0.28125 0.5625 0
0.28125 0.53125 0
0.3125 0.53125 0
0.28125 0.5625 0
0.3125 0.5625 0
0.3125 0.5 0
0.34375 0.5 0
0.3125 0.53125 0
0.34375 0.53125 0
0.34375 0.5 0
0.375 0.5 0
0.34375 0.53125 0
0.375 0.53125 0
0.3125 0.53125 0
0.34375 0.53125 0
0.3125 0.5625 0
0.34375 0.5625 0
0.34375 0.53125 0
0.375 0.53125 0
0.34375 0.5625 0
0.375 0.5625 0
0.25 0.5625 0
0.28125 0.5625 0
0.25 0.59375 0
0.28125 0.59375 0
0.28125 0.5625 0
0.3125 0.5625 0
0.28125 0.59375 0
0.3125 0.59375 0
0.25 0.59375 0
0.28125 0.59375 0
0.25 0.625 0
0.28125 0.625 0
0.28125 0.59375 0
0.3125 0.59375 0
0.28125 0.625 0
0.3125 0.625 0
0.3125 0.5625 0
0.34375 0.5625 0
0.3125 0.59375 0
0.34375 0.59375 0
0.34375 0.5625 0
0.375 0.5625 0
0.34375 0.59375 0
0.375 0.59375 0
0.3125 0.59375 0
0.34375 0.59375 0
0.3125 0.625 0
0.34375 0.625 0
0.34375 0.59375 0
0.375 0.59375 0
0.34375 0.625 0
0.375 0.625 0
0.375 0.5 0
0.40625 0.5 0
0.375 0.53125 0
0.40625 0.53125 0
0.40625 0.5 0
0.4375 0.5 0
0.40625 0.53125 0
0.4375 0.53125 0
0.375 0.53125 0
0.40625 0.53125 0
0.375 0.5625 0
0.40625 0.5625 0
0.40625 0.53125 0
0.4375 0.53125 0
0.40625 0.5625 0
0.4375 0.5625 0
0.4375 0.5 0
0.46875 0.5 0
0.4375 0.53125 0
0.46875 0.53125 0
0.46875 0.5 0
0.5 0.5 0
0.46875 0.53125 0
0.5 0.53125 0
0.4375 0.53125 0
0.46875 0.53125 0
0.4375 0.5625 0
0.46875 0.5625 0
0.46875 0.53125 0
0.5 0.53125 0
0.46875 0.5625 0
0.5 0.5625 0
0.375 0.5625 0
0.40625 0.5625 0
0.375 0.59375 0
0.40625 0.59375 0
0.40625 0.5625 0
0.4375 0.5625 0
0.40625 0.59375 0
0.4375 0.59375 0
0.375 0.59375 0
0.40625 0.59375 0
0.375 0.625 0
0.40625 0.625 0
0.40625 0.59375 0
0.4375 0.59375 0
0.40625 0.625 0
0.4375 0.625 0
0.4375 0.5625 0
0.46875 0.5625 0
0.4375 0.59375 0
0.46875 0.59375 0
0.46875 0.5625 0
0.5 0.5625 0
0.46875 0.59375 0
0.5 0.59375 0
0.4375 0.59375 0
0.46875 0.59375 0
0.4375 0.625 0
0.46875 0.625 0
0.46875 0.59375 0
0.5 0.59375 0
0.46875 0.625 0
0.5 0.625 0
0.25 0.625 0
0.28125 0.625 0
0.25 0.65625 0
0.28125 0.65625 0
0.28125 0.625 0
0.3125 0.625 0
0.28125 0.65625 0
0.3125 0.65625 0
0.25 0.65625 0
0.28125 0.65625 0
0.25 0.6875 0
0.28125 0.6875 0
0.28125 0.65625 0
0.3125 0.65625 0
0.28125 0.6875 0
0.3125 0.6875 0
0.3125 0.625 0
0.34375 0.625 0
0.3125 0.65625 0
0.34375 0.65625 0
0.34375 0.625 0
0.375 0.625 0
0.34375 0.65625 0
0.375 0.65625 0
0.3125 0.65625 0
0.34375 0.65625 0
0.3125 0.6875 0
0.34375 0.6875 0
0.34375 0.65625 0
0.375 0.65625 0
0.34375 0.6875 0
0.375 0.6875 0
0.25 0.6875 0
0.28125 0.6875 0
0.25 0.71875 0
0.28125 0.71875 0
0.28125 0.6875 0
0.3125 0.6875 0
0.28125 0.71875 0
0.3125 0.71875 0
0.25 0.71875 0
0.28125 0.71875 0
0.25 0.75 0
0.28125 0.75 0
0.28125 0.71875 0
0.3125 0.71875 0
0.28125 0.75 0
0.3125 0.75 0
0.3125 0.6875 0
0.34375 0.6875 0
0.3125 0.71875 0
0.34375 0.71875 0
0.34375 0.6875 0
0.375 0.6875 0
0.34375 0.71875 0
0.375 0.71875 0
0.3125 0.71875 0
0.34375 0.71875 0
0.3125 0.75 0
0.34375 0.75 0
0.34375 0.71875 0
0.375 0.71875 0
0.34375 0.75 0
0.375 0.75 0
0.375 0.625 0
0.40625 0.625 0
0.375 0.65625 0
0.40625 0.65625 0
0.40625 0.625 0
0.4375 0.625 0
0.40625 0.65625 0
0.4375 0.65625 0
0.375 0.65625 0
0.40625 0.65625 0
0.375 0.6875 0
0.40625 0.6875 0
0.40625 0.65625 0
0.4375 0.65625 0
0.40625 0.6875 0
0.4375 0.6875 0
0.4375 0.625 0
0.46875 0.625 0
0.4375 0.65625 0
0.46875 0.65625 0
0.46875 0.625 0
0.5 0.625 0
0.46875 0.65625 0
0.5 0.65625 0
0.4375 0.65625 0
0.46875 0.65625 0
0.4375 0.6875 0
0.46875 0.6875 0
0.46875 0.65625 0
0.5 0.65625 0
0.46875 0.6875 0
0.5 0.6875 0
0.375 0.6875 0
0.40625 0.6875 0
0.375 0.71875 0
0.40625 0.71875 0
0.40625 0.6875 0
0.4375 0.6875 0
0.40625 0.71875 0
0.4375 0.71875 0
0.375 0.71875 0
0.40625 0.71875 0
0.375 0.75 0
0.40625 0.75 0
0.40625 0.71875 0
0.4375 0.71875 0
0.40625 0.75 0
0.4375 0.75 0
0.4375 0.6875 0
0.46875 0.6875 0
0.4375 0.71875 0
0.46875 0.71875 0
0.46875 0.6875 0
0.5 0.6875 0
0.46875 0.71875 0
0.5 0.71875 0
0.4375 0.71875 0
0.46875 0.71875 0
0.4375 0.75 0
0.46875 0.75 0
0.46875 0.71875 0
0.5 0.71875 0
0.46875 0.75 0
0.5 0.75 0
0 0.75 0
0.03125 0.75 0
0 0.78125 0
0.03125 0.78125 0
0.03125 0.75 0
0.0625 0.75 0
0.03125 0.78125 0
0.0625 0.78125 0
0 0.78125 0
0.03125 0.78125 0
0 0.8125 0
0.03125 0.8125 0
0.03125 0.78125 0
0.0625 0.78125 0
0.03125 0.8125 0
0.0625 0.8125 0
0.0625 0.75 0
0.09375 0.75 0
0.0625 0.78125 0
0.09375 0.78125 0
0.09375 0.75 0
0.125 0.75 0
0.09375 0.78125 0
0.125 0.78125 0
0.0625 0.78125 0
0.09375 0.78125 0
0.0625 0.8125 0
0.09375 0.8125 0
0.09375 0.78125 0
0.125 0.78125 0
0.09375 0.8125 0
0.125 0.8125 0
0 0.8125 0
0.03125 0.8125 0
0 0.84375 0
0.03125 0.84375 0
0.03125 0.8125 0
0.0625 0.8125 0
0.03125 0.84375 0
0.0625 0.84375 0
0 0.84375 0
0.03125 0.84375 0
0 0.875 0
0.03125 0.875 0
0.03125 0.84375 0
0.0625 0.84375 0
0.03125 0.875 0
0.0625 0.875 0
0.0625 0.8125 0
0.09375 0.8125 0
0.0625 0.84375 0
0.09375 0.84375 0
0.09375 0.8125 0
0.125 0.8125 0
0.09375 0.84375 0
0.125 0.84375 0
0.0625 0.84375 0
0.09375 0.84375 0
0.0625 0.875 0
0.09375 0.875 0
0.09375 0.84375 0
0.125 0.84375 0
0.09375 0.875 0
0.125 0.875 0
0.125 0.75 0
0.15625 0.75 0
0.125 0.78125 0
0.15625 0.78125 0
0.15625 0.75 0
0.1875 0.75 0
0.15625 0.78125 0
0.1875 0.78125 0
0.125 0.78125 0
0.15625 0.78125 0
0.125 0.8125 0
0.15625 0.8125 0
0.15625 0.78125 0
0.1875 0.78125 0
0.15625 0.8125 0
0.1875 0.8125 0
0.1875 0.75 0
0.21875 0.75 0
0.1875 0.78125 0
0.21875 0.78125 0
0.21875 0.75 0
0.25 0.75 0
0.21875 0.78125 0
0.25 0.78125 0
0.1875 0.78125 0
0.21875 0.78125 0
0.1875 0.8125 0
0.21875 0.8125 0
0.21875 0.78125 0
0.25 0.78125 0
0.21875 0.8125 0
0.25 0.8125 0
0.125 0.8125 0
0.15625 0.8125 0
0.125 0.84375 0
0.15625 0.84375 0
0.15625 0.8125 0
[...]
POINT_DATA 4096
SCALARS x_dis double 1
LOOKUP_TABLE default
3.92192e-07 3.92221e-07 -2.19873e-07 -2.19821e-07 3.92221e-07 3.92305e-07 -2.19821e-07 -2.19672e-07 -2.19873e-07 -2.19821e-07 -1.92187e-06 -1.92178e-06 -2.19821e-07 -2.19672e-07 -1.92178e-06 -1.92153e-06 3.92305e-07 3.92432e-07 -2.19672e-07 -2.19444e-07 3.92432e-07 3.92589e-07 -2.19444e-07 -2.19161e-07 -2.19672e-07 -2.19444e-07 -1.92153e-06 -1.92114e-06 -2.19444e-07 -2.19161e-07 -1.92114e-06 -1.92067e-06 -1.92187e-06 -1.92178e-06 1.82346e-06 1.82361e-06 -1.92178e-06 -1.92153e-06 1.82361e-06 1.82402e-06 1.82346e-06 1.82361e-06 9.66774e-06 9.66798e-06 1.82361e-06 1.82402e-06 9.66798e-06 9.66864e-06 -1.92153e-06 -1.92114e-06 1.82402e-06 1.82465e-06 -1.92114e-06 -1.92067e-06 1.82465e-06 1.8254e-06 1.82402e-06 1.82465e-06 9.66864e-06 9.66962e-06 1.82465e-06 1.8254e-06 9.66962e-06 9.67079e-06 3.92589e-07 3.92757e-07 -2.19161e-07 -2.18854e-07 3.92757e-07 3.92922e-07 -2.18854e-07 -2.18549e-07 -2.19161e-07 -2.18854e-07 -1.92067e-06 -1.92016e-06 -2.18854e-07 -2.18549e-07 -1.92016e-06 -1.91965e-06 3.92922e-07 3.93068e-07 -2.18549e-07 -2.18269e-07 3.93068e-07 3.9319e-07 -2.18269e-07 -2.18035e-07 -2.18549e-07 -2.18269e-07 -1.91965e-06 -1.91918e-06 -2.18269e-07 -2.18035e-07 -1.91918e-06 -1.91877e-06 -1.92067e-06 -1.92016e-06 1.8254e-06 1.82621e-06 -1.92016e-06 -1.91965e-06 1.82621e-06 1.82701e-06 1.8254e-06 1.82621e-06 9.67079e-06 9.67202e-06 1.82621e-06 1.82701e-06 9.67202e-06 9.67321e-06 -1.91965e-06 -1.91918e-06 1.82701e-06 1.82774e-06 -1.91918e-06 -1.91877e-06 1.82774e-06 1.82838e-06 1.82701e-06 1.82774e-06 9.67321e-06 9.6743e-06 1.82774e-06 1.82838e-06 9.6743e-06 9.67524e-06 9.66774e-06 9.66798e-06 1.75472e-07 1.75843e-07 9.66798e-06 9.66864e-06 1.75843e-07 1.76863e-07 1.75472e-07 1.75843e-07 -4.55925e-05 -4.55918e-05 1.75843e-07 1.76863e-07 -4.55918e-05 -4.55903e-05 9.66864e-06 9.66962e-06 1.76863e-07 1.78332e-07 9.66962e-06 9.67079e-06 1.78332e-07 1.8005e-07 1.76863e-07 1.78332e-07 -4.55903e-05 -4.55881e-05 1.78332e-07 1.8005e-07 -4.55881e-05 -4.55857e-05 -4.55925e-05 -4.55918e-05 -0.000124958 -0.000124957 -4.55918e-05 -4.55903e-05 -0.000124957 -0.000124954 -0.000124958 -0.000124957 -0.000223995 -0.000223992 -0.000124957 -0.000124954 -0.000223992 -0.000223988 -4.55903e-05 -4.55881e-05 -0.000124954 -0.000124951 -4.55881e-05 -4.55857e-05 -0.000124951 -0.000124948 -0.000124954 -0.000124951 -0.000223988 -0.000223984 -0.000124951 -0.000124948 -0.000223984 -0.000223979 9.67079e-06 9.67202e-06 1.8005e-07 1.81838e-07 9.67202e-06 9.67321e-06 1.81838e-07 1.83554e-07 1.8005e-07 1.81838e-07 -4.55857e-05 -4.55832e-05 1.81838e-07 1.83554e-07 -4.55832e-05 -4.55809e-05 9.67321e-06 9.6743e-06 1.83554e-07 1.85103e-07 9.6743e-06 9.67524e-06 1.85103e-07 1.86431e-07 1.83554e-07 1.85103e-07 -4.55809e-05 -4.55787e-05 1.85103e-07 1.86431e-07 -4.55787e-05 -4.55769e-05 -4.55857e-05 -4.55832e-05 -0.000124948 -0.000124945 -4.55832e-05 -4.55809e-05 -0.000124945 -0.000124941 -0.000124948 -0.000124945 -0.000223979 -0.000223975 -0.000124945 -0.000124941 -0.000223975 -0.000223971 -4.55809e-05 -4.55787e-05 -0.000124941 -0.000124939 -4.55787e-05 -4.55769e-05 -0.000124939 -0.000124936 -0.000124941 -0.000124939 -0.000223971 -0.000223968 -0.000124939 -0.000124936 -0.000223968 -0.000223965 3.9319e-07 3.9328e-07 -2.18035e-07 -2.1787e-07 3.9328e-07 3.93338e-07 -2.1787e-07 -2.17772e-07 -2.18035e-07 -2.1787e-07 -1.91877e-06 -1.91847e-06 -2.1787e-07 -2.17772e-07 -1.91847e-06 -1.91826e-06 3.93338e-07 3.93381e-07 -2.17772e-07 -2.17555e-07 3.93381e-07 3.9343e-07 -2.17555e-07 -2.16998e-07 -2.17772e-07 -2.17555e-07 -1.91826e-06 -1.91797e-06 -2.17555e-07 -2.16998e-07 -1.91797e-06 -1.91744e-06 -1.91877e-06 -1.91847e-06 1.82838e-06 1.82889e-06 -1.91847e-06 -1.91826e-06 1.82889e-06 1.82927e-06 1.82838e-06 1.82889e-06 9.67524e-06 9.67601e-06 1.82889e-06 1.82927e-06 9.67601e-06 9.67659e-06 -1.91826e-06 -1.91797e-06 1.82927e-06 1.82964e-06 -1.91797e-06 -1.91744e-06 1.82964e-06 1.83006e-06 1.82927e-06 1.82964e-06 9.67659e-06 9.67707e-06 1.82964e-06 1.83006e-06 9.67707e-06 9.67754e-06 3.9343e-07 3.93442e-07 -2.16998e-07 -2.17357e-07 3.93442e-07 3.93384e-07 -2.17357e-07 -2.21668e-07 -2.16998e-07 -2.17357e-07 -1.91744e-06 -1.91744e-06 -2.17357e-07 -2.21668e-07 -1.91744e-06 -1.91916e-06 3.93384e-07 3.93438e-07 -2.21668e-07 -2.28136e-07 3.93438e-07 3.93532e-07 -2.28136e-07 -2.10563e-07 -2.21668e-07 -2.28136e-07 -1.91916e-06 -1.92082e-06 -2.28136e-07 -2.10563e-07 -1.92082e-06 -1.937e-06 -1.91744e-06 -1.91744e-06 1.83006e-06 1.83011e-06 -1.91744e-06 -1.91916e-06 1.83011e-06 1.82987e-06 1.83006e-06 1.83011e-06 9.67754e-06 9.67797e-06 1.83011e-06 1.82987e-06 9.67797e-06 9.67772e-06 -1.91916e-06 -1.92082e-06 1.82987e-06 1.83011e-06 -1.92082e-06 -1.937e-06 1.83011e-06 1.83581e-06 1.82987e-06 1.83011e-06 9.67772e-06 9.6773e-06 1.83011e-06 1.83581e-06 9.6773e-06 9.67791e-06 9.67524e-06 9.67601e-06 1.86431e-07 1.87518e-07 9.67601e-06 9.67659e-06 1.87518e-07 1.88364e-07 1.86431e-07 1.87518e-07 -4.55769e-05 -4.55755e-05 1.87518e-07 1.88364e-07 -4.55755e-05 -4.55743e-05 9.67659e-06 9.67707e-06 1.88364e-07 1.88982e-07 9.67707e-06 9.67754e-06 1.88982e-07 1.89459e-07 1.88364e-07 1.88982e-07 -4.55743e-05 -4.55735e-05 1.88982e-07 1.89459e-07 -4.55735e-05 -4.55729e-05 -4.55769e-05 -4.55755e-05 -0.000124936 -0.000124935 -4.55755e-05 -4.55743e-05 -0.000124935 -0.000124933 -0.000124936 -0.000124935 -0.000223965 -0.000223963 -0.000124935 -0.000124933 -0.000223963 -0.000223961 -4.55743e-05 -4.55735e-05 -0.000124933 -0.000124932 -4.55735e-05 -4.55729e-05 -0.000124932 -0.000124931 -0.000124933 -0.000124932 -0.000223961 -0.00022396 -0.000124932 -0.000124931 -0.00022396 -0.000223959 9.67754e-06 9.67797e-06 1.89459e-07 1.89968e-07 9.67797e-06 9.67772e-06 1.89968e-07 1.90509e-07 1.89459e-07 1.89968e-07 -4.55729e-05 -4.55725e-05 1.89968e-07 1.90509e-07 -4.55725e-05 -4.55721e-05 9.67772e-06 9.6773e-06 1.90509e-07 1.905e-07 9.6773e-06 9.67791e-06 1.905e-07 1.89425e-07 1.90509e-07 1.905e-07 -4.55721e-05 -4.55717e-05 1.905e-07 1.89425e-07 -4.55717e-05 -4.55714e-05 -4.55729e-05 -4.55725e-05 -0.000124931 -0.000124931 -4.55725e-05 -4.55721e-05 -0.000124931 -0.00012493 -0.000124931 -0.000124931 -0.000223959 -0.000223958 -0.000124931 -0.00012493 -0.000223958 -0.000223957 -4.55721e-05 -4.55717e-05 -0.00012493 -0.00012493 -4.55717e-05 -4.55714e-05 -0.00012493 -0.00012493 -0.00012493 -0.00012493 -0.000223957 -0.000223957 -0.00012493 -0.00012493 -0.000223957 -0.000223957 -0.000223995 -0.000223992 -0.00033097 -0.000330965 -0.000223992 -0.000223988 -0.000330965 -0.00033096 -0.00033097 -0.000330965 -0.000440307 -0.0004403 -0.000330965 -0.00033096 -0.0004403 -0.000440293 -0.000223988 -0.000223984 -0.00033096 -0.000330955 -0.000223984 -0.000223979 -0.000330955 -0.000330949 -0.00033096 -0.000330955 -0.000440293 -0.000440286 -0.000330955 -0.000330949 -0.000440286 -0.000440279 -0.000440307 -0.0004403 -0.00055017 -0.00055016 -0.0004403 -0.000440293 -0.00055016 -0.000550152 -0.00055017 -0.00055016 -0.00066012 -0.000660108 -0.00055016 -0.000550152 -0.000660108 -0.000660097 -0.000440293 -0.000440286 -0.000550152 -0.000550144 -0.000440286 -0.000440279 -0.000550144 -0.000550136 -0.000550152 -0.000550144 -0.000660097 -0.000660088 -0.000550144 -0.000550136 -0.000660088 -0.00066008 -0.000223979 -0.000223975 -0.000330949 -0.000330944 -0.000223975 -0.000223971 -0.000330944 -0.00033094 -0.000330949 -0.000330944 -0.000440279 -0.000440274 -0.000330944 -0.00033094 -0.000440274 -0.000440269 -0.000223971 -0.000223968 -0.00033094 -0.000330936 -0.000223968 -0.000223965 -0.000330936 -0.000330933 -0.00033094 -0.000330936 -0.000440269 -0.000440264 -0.000330936 -0.000330933 -0.000440264 -0.000440261 -0.000440279 -0.000440274 -0.000550136 -0.00055013 -0.000440274 -0.000440269 -0.00055013 -0.000550125 -0.000550136 -0.00055013 -0.00066008 -0.000660074 -0.00055013 -0.000550125 -0.000660074 -0.000660069 -0.000440269 -0.000440264 -0.000550125 -0.00055012 -0.000440264 -0.000440261 -0.00055012 -0.000550117 -0.000550125 -0.00055012 -0.000660069 -0.000660065 -0.00055012 -0.000550117 -0.000660065 -0.000660061 -0.00066012 -0.000660108 -0.000770093 -0.000770079 -0.000660108 -0.000660097 -0.000770079 -0.000770067 -0.000770093 -0.000770079 -0.000880066 -0.00088005 -0.000770079 -0.000770067 -0.00088005 -0.000880037 -0.000660097 -0.000660088 -0.000770067 -0.000770057 -0.000660088 -0.00066008 -0.000770057 -0.000770049 -0.000770067 -0.000770057 -0.000880037 -0.000880028 -0.000770057 -0.000770049 -0.000880028 -0.000880022 -0.000880066 -0.00088005 -0.000990046 -0.000990027 -0.00088005 -0.000880037 -0.000990027 -0.000990017 -0.000990046 -0.000990027 -0.0011 -0.0011 -0.000990027 -0.000990017 -0.0011 -0.0011 -0.000880037 -0.000880028 -0.000990017 -0.000990012 -0.000880028 -0.000880022 -0.000990012 -0.000990008 -0.000990017 -0.000990012 -0.0011 -0.0011 -0.000990012 -0.000990008 -0.0011 -0.0011 -0.00066008 -0.000660074 -0.000770049 -0.000770044 -0.000660074 -0.000660069 -0.000770044 -0.000770039 -0.000770049 -0.000770044 -0.000880022 -0.000880018 -0.000770044 -0.000770039 -0.000880018 -0.000880014 -0.000660069 -0.000660065 -0.000770039 -0.000770036 -0.000660065 -0.000660061 -0.000770036 -0.000770033 -0.000770039 -0.000770036 -0.000880014 -0.000880012 -0.000770036 -0.000770033 -0.000880012 -0.00088001 -0.000880022 -0.000880018 -0.000990008 -0.000990006 -0.000880018 -0.000880014 -0.000990006 -0.000990004 -0.000990008 -0.000990006 -0.0011 -0.0011 -0.000990006 -0.000990004 -0.0011 -0.0011 -0.000880014 -0.000880012 -0.000990004 -0.000990003 -0.000880012 -0.00088001 -0.000990003 -0.000990002 -0.000990004 -0.000990003 -0.0011 -0.0011 -0.000990003 -0.000990002 -0.0011 -0.0011 -0.000223965 -0.000223963 -0.000330933 -0.00033093 -0.000223963 -0.000223961 -0.00033093 -0.000330928 -0.000330933 -0.00033093 -0.000440261 -0.000440258 -0.00033093 -0.000330928 -0.000440258 -0.000440256 -0.000223961 -0.00022396 -0.000330928 -0.000330926 -0.00022396 -0.000223959 -0.000330926 -0.000330925 -0.000330928 -0.000330926 -0.000440256 -0.000440254 -0.000330926 -0.000330925 -0.000440254 -0.000440252 -0.000440261 -0.000440258 -0.000550117 -0.000550114 -0.000440258 -0.000440256 -0.000550114 -0.000550111 -0.000550117 -0.000550114 -0.000660061 -0.000660059 -0.000550114 -0.000550111 -0.000660059 -0.000660056 -0.000440256 -0.000440254 -0.000550111 -0.00055011 -0.000440254 -0.000440252 -0.00055011 -0.000550108 -0.000550111 -0.00055011 -0.000660056 -0.000660055 -0.00055011 -0.000550108 -0.000660055 -0.000660053 -0.000223959 -0.000223958 -0.000330925 -0.000330924 -0.000223958 -0.000223957 -0.000330924 -0.000330924 -0.000330925 -0.000330924 -0.000440252 -0.000440252 -0.000330924 -0.000330924 -0.000440252 -0.000440251 -0.000223957 -0.000223957 -0.000330924 -0.000330923 -0.000223957 -0.000223957 -0.000330923 -0.000330923 -0.000330924 -0.000330923 -0.000440251 -0.000440251 -0.000330923 -0.000330923 -0.000440251 -0.00044025 -0.000440252 -0.000440252 -0.000550108 -0.000550107 -0.000440252 -0.000440251 -0.000550107 -0.000550107 -0.000550108 -0.000550107 -0.000660053 -0.000660052 -0.000550107 -0.000550107 -0.000660052 -0.000660052 -0.000440251 -0.000440251 -0.000550107 -0.000550106 -0.000440251 -0.00044025 -0.000550106 -0.000550106 -0.000550107 -0.000550106 -0.000660052 -0.000660051 -0.000550106 -0.000550106 -0.000660051 -0.000660051 -0.000660061 -0.000660059 -0.000770033 -0.000770031 -0.000660059 -0.000660056 -0.000770031 -0.000770029 -0.000770033 -0.000770031 -0.00088001 -0.000880008 -0.000770031 -0.000770029 -0.000880008 -0.000880007 -0.000660056 -0.000660055 -0.000770029 -0.000770027 -0.000660055 -0.000660053 -0.000770027 -0.000770026 -0.000770029 -0.000770027 -0.000880007 -0.000880006 -0.000770027 -0.000770026 -0.000880006 -0.000880005 -0.00088001 -0.000880008 -0.000990002 -0.000990001 -0.000880008 -0.000880007 -0.000990001 -0.00099 -0.000990002 -0.000990001 -0.0011 -0.0011 -0.000990001 -0.00099 -0.0011 -0.0011 -0.000880007 -0.000880006 -0.00099 -0.00099 -0.000880006 -0.000880005 -0.00099 -0.000989999 -0.00099 -0.00099 -0.0011 -0.0011 -0.00099 -0.000989999 -0.0011 -0.0011 -0.000660053 -0.000660052 -0.000770026 -0.000770025 -0.000660052 -0.000660052 -0.000770025 -0.000770025 -0.000770026 -0.000770025 -0.000880005 -0.000880004 -0.000770025 -0.000770025 -0.000880004 -0.000880004 -0.000660052 -0.000660051 -0.000770025 -0.000770024 -0.000660051 -0.000660051 -0.000770024 -0.000770024 -0.000770025 -0.000770024 -0.000880004 -0.000880003 -0.000770024 -0.000770024 -0.000880003 -0.000880003 -0.000880005 -0.000880004 -0.000989999 -0.000989999 -0.000880004 -0.000880004 -0.000989999 -0.000989999 -0.000989999 -0.000989999 -0.0011 -0.0011 -0.000989999 -0.000989999 -0.0011 -0.0011 -0.000880004 -0.000880003 -0.000989999 -0.000989998 -0.000880003 -0.000880003 -0.000989998 -0.000989998 -0.000989999 -0.000989998 -0.0011 -0.0011 -0.000989998 -0.000989998 -0.0011 -0.0011 3.93532e-07 7.21796e-07 -2.10563e-07 -2.37814e-07 7.21796e-07 8.18093e-07 -2.37814e-07 -2.45292e-07 -2.10563e-07 -2.37814e-07 -1.937e-06 -1.95608e-06 -2.37814e-07 -2.45292e-07 -1.95608e-06 -1.96864e-06 8.18093e-07 8.04115e-07 -2.45292e-07 -2.61086e-07 8.04115e-07 7.86589e-07 -2.61086e-07 -2.72919e-07 -2.45292e-07 -2.61086e-07 -1.96864e-06 -1.96883e-06 -2.61086e-07 -2.72919e-07 -1.96883e-06 -1.9695e-06 -1.937e-06 -1.95608e-06 1.83581e-06 1.84582e-06 -1.95608e-06 -1.96864e-06 1.84582e-06 1.85452e-06 1.83581e-06 1.84582e-06 9.67791e-06 9.67918e-06 1.84582e-06 1.85452e-06 9.67918e-06 9.67855e-06 -1.96864e-06 -1.96883e-06 1.85452e-06 1.8562e-06 -1.96883e-06 -1.9695e-06 1.8562e-06 1.85516e-06 1.85452e-06 1.8562e-06 9.67855e-06 9.67677e-06 1.8562e-06 1.85516e-06 9.67677e-06 9.67619e-06 7.86589e-07 7.83548e-07 -2.72919e-07 -2.73503e-07 7.83548e-07 7.8606e-07 -2.73503e-07 -2.70786e-07 -2.72919e-07 -2.73503e-07 -1.9695e-06 -1.96942e-06 -2.73503e-07 -2.70786e-07 -1.96942e-06 -1.96841e-06 7.8606e-07 7.87654e-07 -2.70786e-07 -2.69947e-07 7.87654e-07 7.87627e-07 -2.69947e-07 -2.70133e-07 -2.70786e-07 -2.69947e-07 -1.96841e-06 -1.96785e-06 -2.69947e-07 -2.70133e-07 -1.96785e-06 -1.96764e-06 -1.9695e-06 -1.96942e-06 1.85516e-06 1.85494e-06 -1.96942e-06 -1.96841e-06 1.85494e-06 1.85571e-06 1.85516e-06 1.85494e-06 9.67619e-06 9.67704e-06 1.85494e-06 1.85571e-06 9.67704e-06 9.67794e-06 -1.96841e-06 -1.96785e-06 1.85571e-06 1.85639e-06 -1.96785e-06 -1.96764e-06 1.85639e-06 1.85685e-06 1.85571e-06 1.85639e-06 9.67794e-06 9.67856e-06 1.85639e-06 1.85685e-06 9.67856e-06 9.67923e-06 9.67791e-06 9.67918e-06 1.89425e-07 1.87573e-07 9.67918e-06 9.67855e-06 1.87573e-07 1.86233e-07 1.89425e-07 1.87573e-07 -4.55714e-05 -4.55711e-05 1.87573e-07 1.86233e-07 -4.55711e-05 -4.55705e-05 9.67855e-06 9.67677e-06 1.86233e-07 1.86307e-07 9.67677e-06 9.67619e-06 1.86307e-07 1.8731e-07 1.86233e-07 1.86307e-07 -4.55705e-05 -4.55698e-05 1.86307e-07 1.8731e-07 -4.55698e-05 -4.55692e-05 -4.55714e-05 -4.55711e-05 -0.00012493 -0.00012493 -4.55711e-05 -4.55705e-05 -0.00012493 -0.000124929 -0.00012493 -0.00012493 -0.000223957 -0.000223957 -0.00012493 -0.000124929 -0.000223957 -0.000223957 -4.55705e-05 -4.55698e-05 -0.000124929 -0.000124929 -4.55698e-05 -4.55692e-05 -0.000124929 -0.000124929 -0.000124929 -0.000124929 -0.000223957 -0.000223956 -0.000124929 -0.000124929 -0.000223956 -0.000223955 9.67619e-06 9.67704e-06 1.8731e-07 1.88185e-07 9.67704e-06 9.67794e-06 1.88185e-07 1.88801e-07 1.8731e-07 1.88185e-07 -4.55692e-05 -4.55687e-05 1.88185e-07 1.88801e-07 -4.55687e-05 -4.55679e-05 9.67794e-06 9.67856e-06 1.88801e-07 1.89545e-07 9.67856e-06 9.67923e-06 1.89545e-07 1.90601e-07 1.88801e-07 1.89545e-07 -4.55679e-05 -4.55668e-05 1.89545e-07 1.90601e-07 -4.55668e-05 -4.55653e-05 -4.55692e-05 -4.55687e-05 -0.000124929 -0.000124928 -4.55687e-05 -4.55679e-05 -0.000124928 -0.000124927 -0.000124929 -0.000124928 -0.000223955 -0.000223954 -0.000124928 -0.000124927 -0.000223954 -0.000223953 -4.55679e-05 -4.55668e-05 -0.000124927 -0.000124925 -4.55668e-05 -4.55653e-05 -0.000124925 -0.000124923 -0.000124927 -0.000124925 -0.000223953 -0.000223951 -0.000124925 -0.000124923 -0.000223951 -0.000223949 7.87627e-07 7.87525e-07 -2.70133e-07 -2.70106e-07 7.87525e-07 7.87836e-07 -2.70106e-07 -2.69815e-07 -2.70133e-07 -2.70106e-07 -1.96764e-06 -1.96736e-06 -2.70106e-07 -2.69815e-07 -1.96736e-06 -1.96692e-06 7.87836e-07 7.88249e-07 -2.69815e-07 -2.69485e-07 7.88249e-07 7.88614e-07 -2.69485e-07 -2.69188e-07 -2.69815e-07 -2.69485e-07 -1.96692e-06 -1.96643e-06 -2.69485e-07 -2.69188e-07 -1.96643e-06 -1.96595e-06 -1.96764e-06 -1.96736e-06 1.85685e-06 1.85739e-06 -1.96736e-06 -1.96692e-06 1.85739e-06 1.85811e-06 1.85685e-06 1.85739e-06 9.67923e-06 9.68014e-06 1.85739e-06 1.85811e-06 9.68014e-06 9.68124e-06 -1.96692e-06 -1.96643e-06 1.85811e-06 1.85892e-06 -1.96643e-06 -1.96595e-06 1.85892e-06 1.85972e-06 1.85811e-06 1.85892e-06 9.68124e-06 9.68244e-06 1.85892e-06 1.85972e-06 9.68244e-06 9.68367e-06 7.88614e-07 7.8894e-07 -2.69188e-07 -2.68919e-07 7.8894e-07 7.89213e-07 -2.68919e-07 -2.68695e-07 -2.69188e-07 -2.68919e-07 -1.96595e-06 -1.96552e-06 -2.68919e-07 -2.68695e-07 -1.96552e-06 -1.96517e-06 7.89213e-07 7.89394e-07 -2.68695e-07 -2.68547e-07 7.89394e-07 7.89457e-07 -2.68547e-07 -2.68495e-07 -2.68695e-07 -2.68547e-07 -1.96517e-06 -1.96494e-06 -2.68547e-07 -2.68495e-07 -1.96494e-06 -1.96485e-06 -1.96595e-06 -1.96552e-06 1.85972e-06 1.86045e-06 -1.96552e-06 -1.96517e-06 1.86045e-06 1.86107e-06 1.85972e-06 1.86045e-06 9.68367e-06 9.68483e-06 1.86045e-06 1.86107e-06 9.68483e-06 9.68581e-06 -1.96517e-06 -1.96494e-06 1.86107e-06 1.86147e-06 -1.96494e-06 -1.96485e-06 1.86147e-06 1.86162e-06 1.86107e-06 1.86147e-06 9.68581e-06 9.68648e-06 1.86147e-06 1.86162e-06 9.68648e-06 9.68671e-06 9.67923e-06 9.68014e-06 1.90601e-07 1.91936e-07 9.68014e-06 9.68124e-06 1.91936e-07 1.93493e-07 1.90601e-07 1.91936e-07 -4.55653e-05 -4.55635e-05 1.91936e-07 1.93493e-07 -4.55635e-05 -4.55614e-05 9.68124e-06 9.68244e-06 1.93493e-07 1.95211e-07 9.68244e-06 9.68367e-06 1.95211e-07 1.96999e-07 1.93493e-07 1.95211e-07 -4.55614e-05 -4.5559e-05 1.95211e-07 1.96999e-07 -4.5559e-05 -4.55566e-05 -4.55653e-05 -4.55635e-05 -0.000124923 -0.000124921 -4.55635e-05 -4.55614e-05 -0.000124921 -0.000124918 -0.000124923 -0.000124921 -0.000223949 -0.000223946 -0.000124921 -0.000124918 -0.000223946 -0.000223943 -4.55614e-05 -4.5559e-05 -0.000124918 -0.000124915 -4.5559e-05 -4.55566e-05 -0.000124915 -0.000124912 -0.000124918 -0.000124915 -0.000223943 -0.000223939 -0.000124915 -0.000124912 -0.000223939 -0.000223935 9.68367e-06 9.68483e-06 1.96999e-07 1.98717e-07 9.68483e-06 9.68581e-06 1.98717e-07 2.00186e-07 1.96999e-07 1.98717e-07 -4.55566e-05 -4.55542e-05 1.98717e-07 2.00186e-07 -4.55542e-05 -4.5552e-05 9.68581e-06 9.68648e-06 2.00186e-07 2.01207e-07 9.68648e-06 9.68671e-06 2.01207e-07 2.01578e-07 2.00186e-07 2.01207e-07 -4.5552e-05 -4.55504e-05 2.01207e-07 2.01578e-07 -4.55504e-05 -4.55497e-05 -4.55566e-05 -4.55542e-05 -0.000124912 -0.000124909 -4.55542e-05 -4.5552e-05 -0.000124909 -0.000124906 -0.000124912 -0.000124909 -0.000223935 -0.00022393 -0.000124909 -0.000124906 -0.00022393 -0.000223926 -4.5552e-05 -4.55504e-05 -0.000124906 -0.000124903 -4.55504e-05 -4.55497e-05 -0.000124903 -0.000124902 -0.000124906 -0.000124903 -0.000223926 -0.000223922 -0.000124903 -0.000124902 -0.000223922 -0.000223919 -0.000223957 -0.000223957 -0.000330923 -0.000330923 -0.000223957 -0.000223957 -0.000330923 -0.000330922 -0.000330923 -0.000330923 -0.00044025 -0.00044025 -0.000330923 -0.000330922 -0.00044025 -0.000440249 -0.000223957 -0.000223956 -0.000330922 -0.000330922 -0.000223956 -0.000223955 -0.000330922 -0.000330921 -0.000330922 -0.000330922 -0.000440249 -0.000440249 -0.000330922 -0.000330921 -0.000440249 -0.000440248 -0.00044025 -0.00044025 -0.000550106 -0.000550105 -0.00044025 -0.000440249 -0.000550105 -0.000550105 -0.000550106 -0.000550105 -0.000660051 -0.00066005 -0.000550105 -0.000550105 -0.00066005 -0.00066005 -0.000440249 -0.000440249 -0.000550105 -0.000550104 -0.000440249 -0.000440248 -0.000550104 -0.000550103 -0.000550105 -0.000550104 -0.00066005