# vtk DataFile Version 3.0
#This file was generated by the deal.II library on 2022/11/16 at 21:28:30
ASCII
DATASET UNSTRUCTURED_GRID

POINTS 4096 double
0 0.5 0
0.03125 0.5 0
0 0.53125 0
0.03125 0.53125 0
0.03125 0.5 0
0.0625 0.5 0
0.03125 0.53125 0
0.0625 0.53125 0
0 0.53125 0
0.03125 0.53125 0
0 0.5625 0
0.03125 0.5625 0
0.03125 0.53125 0
0.0625 0.53125 0
0.03125 0.5625 0
0.0625 0.5625 0
0.0625 0.5 0
0.09375 0.5 0
0.0625 0.53125 0
0.09375 0.53125 0
0.09375 0.5 0
0.125 0.5 0
0.09375 0.53125 0
0.125 0.53125 0
0.0625 0.53125 0
0.09375 0.53125 0
0.0625 0.5625 0
0.09375 0.5625 0
0.09375 0.53125 0
0.125 0.53125 0
0.09375 0.5625 0
0.125 0.5625 0
0 0.5625 0
0.03125 0.5625 0
0 0.59375 0
0.03125 0.59375 0
0.03125 0.5625 0
0.0625 0.5625 0
0.03125 0.59375 0
0.0625 0.59375 0
0 0.59375 0
0.03125 0.59375 0
0 0.625 0
0.03125 0.625 0
0.03125 0.59375 0
0.0625 0.59375 0
0.03125 0.625 0
0.0625 0.625 0
0.0625 0.5625 0
0.09375 0.5625 0
0.0625 0.59375 0
0.09375 0.59375 0
0.09375 0.5625 0
0.125 0.5625 0
0.09375 0.59375 0
0.125 0.59375 0
0.0625 0.59375 0
0.09375 0.59375 0
0.0625 0.625 0
0.09375 0.625 0
0.09375 0.59375 0
0.125 0.59375 0
0.09375 0.625 0
0.125 0.625 0
0.125 0.5 0
0.15625 0.5 0
0.125 0.53125 0
0.15625 0.53125 0
0.15625 0.5 0
0.1875 0.5 0
0.15625 0.53125 0
0.1875 0.53125 0
0.125 0.53125 0
0.15625 0.53125 0
0.125 0.5625 0
0.15625 0.5625 0
0.15625 0.53125 0
0.1875 0.53125 0
0.15625 0.5625 0
0.1875 0.5625 0
0.1875 0.5 0
0.21875 0.5 0
0.1875 0.53125 0
0.21875 0.53125 0
0.21875 0.5 0
0.25 0.5 0
0.21875 0.53125 0
0.25 0.53125 0
0.1875 0.53125 0
0.21875 0.53125 0
0.1875 0.5625 0
0.21875 0.5625 0
0.21875 0.53125 0
0.25 0.53125 0
0.21875 0.5625 0
0.25 0.5625 0
0.125 0.5625 0
0.15625 0.5625 0
0.125 0.59375 0
0.15625 0.59375 0
0.15625 0.5625 0
0.1875 0.5625 0
0.15625 0.59375 0
0.1875 0.59375 0
0.125 0.59375 0
0.15625 0.59375 0
0.125 0.625 0
0.15625 0.625 0
0.15625 0.59375 0
0.1875 0.59375 0
0.15625 0.625 0
0.1875 0.625 0
0.1875 0.5625 0
0.21875 0.5625 0
0.1875 0.59375 0
0.21875 0.59375 0
0.21875 0.5625 0
0.25 0.5625 0
0.21875 0.59375 0
0.25 0.59375 0
0.1875 0.59375 0
0.21875 0.59375 0
0.1875 0.625 0
0.21875 0.625 0
0.21875 0.59375 0
0.25 0.59375 0
0.21875 0.625 0
0.25 0.625 0
0 0.625 0
0.03125 0.625 0
0 0.65625 0
0.03125 0.65625 0
0.03125 0.625 0
0.0625 0.625 0
0.03125 0.65625 0
0.0625 0.65625 0
0 0.65625 0
0.03125 0.65625 0
0 0.6875 0
0.03125 0.6875 0
0.03125 0.65625 0
0.0625 0.65625 0
0.03125 0.6875 0
0.0625 0.6875 0
0.0625 0.625 0
0.09375 0.625 0
0.0625 0.65625 0
0.09375 0.65625 0
0.09375 0.625 0
0.125 0.625 0
0.09375 0.65625 0
0.125 0.65625 0
0.0625 0.65625 0
0.09375 0.65625 0
0.0625 0.6875 0
0.09375 0.6875 0
0.09375 0.65625 0
0.125 0.65625 0
0.09375 0.6875 0
0.125 0.6875 0
0 0.6875 0
0.03125 0.6875 0
0 0.71875 0
0.03125 0.71875 0
0.03125 0.6875 0
0.0625 0.6875 0
0.03125 0.71875 0
0.0625 0.71875 0
0 0.71875 0
0.03125 0.71875 0
0 0.75 0
0.03125 0.75 0
0.03125 0.71875 0
0.0625 0.71875 0
0.03125 0.75 0
0.0625 0.75 0
0.0625 0.6875 0
0.09375 0.6875 0
0.0625 0.71875 0
0.09375 0.71875 0
0.09375 0.6875 0
0.125 0.6875 0
0.09375 0.71875 0
0.125 0.71875 0
0.0625 0.71875 0
0.09375 0.71875 0
0.0625 0.75 0
0.09375 0.75 0
0.09375 0.71875 0
0.125 0.71875 0
0.09375 0.75 0
0.125 0.75 0
0.125 0.625 0
0.15625 0.625 0
0.125 0.65625 0
0.15625 0.65625 0
0.15625 0.625 0
0.1875 0.625 0
0.15625 0.65625 0
0.1875 0.65625 0
0.125 0.65625 0
0.15625 0.65625 0
0.125 0.6875 0
0.15625 0.6875 0
0.15625 0.65625 0
0.1875 0.65625 0
0.15625 0.6875 0
0.1875 0.6875 0
0.1875 0.625 0
0.21875 0.625 0
0.1875 0.65625 0
0.21875 0.65625 0
0.21875 0.625 0
0.25 0.625 0
0.21875 0.65625 0
0.25 0.65625 0
0.1875 0.65625 0
0.21875 0.65625 0
0.1875 0.6875 0
0.21875 0.6875 0
0.21875 0.65625 0
0.25 0.65625 0
0.21875 0.6875 0
0.25 0.6875 0
0.125 0.6875 0
0.15625 0.6875 0
0.125 0.71875 0
0.15625 0.71875 0
0.15625 0.6875 0
0.1875 0.6875 0
0.15625 0.71875 0
0.1875 0.71875 0
0.125 0.71875 0
0.15625 0.71875 0
0.125 0.75 0
0.15625 0.75 0
0.15625 0.71875 0
0.1875 0.71875 0
0.15625 0.75 0
0.1875 0.75 0
0.1875 0.6875 0
0.21875 0.6875 0
0.1875 0.71875 0
0.21875 0.71875 0
0.21875 0.6875 0
0.25 0.6875 0
0.21875 0.71875 0
0.25 0.71875 0
0.1875 0.71875 0
0.21875 0.71875 0
0.1875 0.75 0
0.21875 0.75 0
0.21875 0.71875 0
0.25 0.71875 0
0.21875 0.75 0
0.25 0.75 0
0.25 0.5 0
0.28125 0.5 0
0.25 0.53125 0
0.28125 0.53125 0
0.28125 0.5 0
0.3125 0.5 0
0.28125 0.53125 0
0.3125 0.53125 0
0.25 0.53125 0
0.28125 0.53125 0
0.25 0.5625 0
0.28125 0.5625 0
0.28125 0.53125 0
0.3125 0.53125 0
0.28125 0.5625 0
0.3125 0.5625 0
0.3125 0.5 0
0.34375 0.5 0
0.3125 0.53125 0
0.34375 0.53125 0
0.34375 0.5 0
0.375 0.5 0
0.34375 0.53125 0
0.375 0.53125 0
0.3125 0.53125 0
0.34375 0.53125 0
0.3125 0.5625 0
0.34375 0.5625 0
0.34375 0.53125 0
0.375 0.53125 0
0.34375 0.5625 0
0.375 0.5625 0
0.25 0.5625 0
0.28125 0.5625 0
0.25 0.59375 0
0.28125 0.59375 0
0.28125 0.5625 0
0.3125 0.5625 0
0.28125 0.59375 0
0.3125 0.59375 0
0.25 0.59375 0
0.28125 0.59375 0
0.25 0.625 0
0.28125 0.625 0
0.28125 0.59375 0
0.3125 0.59375 0
0.28125 0.625 0
0.3125 0.625 0
0.3125 0.5625 0
0.34375 0.5625 0
0.3125 0.59375 0
0.34375 0.59375 0
0.34375 0.5625 0
0.375 0.5625 0
0.34375 0.59375 0
0.375 0.59375 0
0.3125 0.59375 0
0.34375 0.59375 0
0.3125 0.625 0
0.34375 0.625 0
0.34375 0.59375 0
0.375 0.59375 0
0.34375 0.625 0
0.375 0.625 0
0.375 0.5 0
0.40625 0.5 0
0.375 0.53125 0
0.40625 0.53125 0
0.40625 0.5 0
0.4375 0.5 0
0.40625 0.53125 0
0.4375 0.53125 0
0.375 0.53125 0
0.40625 0.53125 0
0.375 0.5625 0
0.40625 0.5625 0
0.40625 0.53125 0
0.4375 0.53125 0
0.40625 0.5625 0
0.4375 0.5625 0
0.4375 0.5 0
0.46875 0.5 0
0.4375 0.53125 0
0.46875 0.53125 0
0.46875 0.5 0
0.5 0.5 0
0.46875 0.53125 0
0.5 0.53125 0
0.4375 0.53125 0
0.46875 0.53125 0
0.4375 0.5625 0
0.46875 0.5625 0
0.46875 0.53125 0
0.5 0.53125 0
0.46875 0.5625 0
0.5 0.5625 0
0.375 0.5625 0
0.40625 0.5625 0
0.375 0.59375 0
0.40625 0.59375 0
0.40625 0.5625 0
0.4375 0.5625 0
0.40625 0.59375 0
0.4375 0.59375 0
0.375 0.59375 0
0.40625 0.59375 0
0.375 0.625 0
0.40625 0.625 0
0.40625 0.59375 0
0.4375 0.59375 0
0.40625 0.625 0
0.4375 0.625 0
0.4375 0.5625 0
0.46875 0.5625 0
0.4375 0.59375 0
0.46875 0.59375 0
0.46875 0.5625 0
0.5 0.5625 0
0.46875 0.59375 0
0.5 0.59375 0
0.4375 0.59375 0
0.46875 0.59375 0
0.4375 0.625 0
0.46875 0.625 0
0.46875 0.59375 0
0.5 0.59375 0
0.46875 0.625 0
0.5 0.625 0
0.25 0.625 0
0.28125 0.625 0
0.25 0.65625 0
0.28125 0.65625 0
0.28125 0.625 0
0.3125 0.625 0
0.28125 0.65625 0
0.3125 0.65625 0
0.25 0.65625 0
0.28125 0.65625 0
0.25 0.6875 0
0.28125 0.6875 0
0.28125 0.65625 0
0.3125 0.65625 0
0.28125 0.6875 0
0.3125 0.6875 0
0.3125 0.625 0
0.34375 0.625 0
0.3125 0.65625 0
0.34375 0.65625 0
0.34375 0.625 0
0.375 0.625 0
0.34375 0.65625 0
0.375 0.65625 0
0.3125 0.65625 0
0.34375 0.65625 0
0.3125 0.6875 0
0.34375 0.6875 0
0.34375 0.65625 0
0.375 0.65625 0
0.34375 0.6875 0
0.375 0.6875 0
0.25 0.6875 0
0.28125 0.6875 0
0.25 0.71875 0
0.28125 0.71875 0
0.28125 0.6875 0
0.3125 0.6875 0
0.28125 0.71875 0
0.3125 0.71875 0
0.25 0.71875 0
0.28125 0.71875 0
0.25 0.75 0
0.28125 0.75 0
0.28125 0.71875 0
0.3125 0.71875 0
0.28125 0.75 0
0.3125 0.75 0
0.3125 0.6875 0
0.34375 0.6875 0
0.3125 0.71875 0
0.34375 0.71875 0
0.34375 0.6875 0
0.375 0.6875 0
0.34375 0.71875 0
0.375 0.71875 0
0.3125 0.71875 0
0.34375 0.71875 0
0.3125 0.75 0
0.34375 0.75 0
0.34375 0.71875 0
0.375 0.71875 0
0.34375 0.75 0
0.375 0.75 0
0.375 0.625 0
0.40625 0.625 0
0.375 0.65625 0
0.40625 0.65625 0
0.40625 0.625 0
0.4375 0.625 0
0.40625 0.65625 0
0.4375 0.65625 0
0.375 0.65625 0
0.40625 0.65625 0
0.375 0.6875 0
0.40625 0.6875 0
0.40625 0.65625 0
0.4375 0.65625 0
0.40625 0.6875 0
0.4375 0.6875 0
0.4375 0.625 0
0.46875 0.625 0
0.4375 0.65625 0
0.46875 0.65625 0
0.46875 0.625 0
0.5 0.625 0
0.46875 0.65625 0
0.5 0.65625 0
0.4375 0.65625 0
0.46875 0.65625 0
0.4375 0.6875 0
0.46875 0.6875 0
0.46875 0.65625 0
0.5 0.65625 0
0.46875 0.6875 0
0.5 0.6875 0
0.375 0.6875 0
0.40625 0.6875 0
0.375 0.71875 0
0.40625 0.71875 0
0.40625 0.6875 0
0.4375 0.6875 0
0.40625 0.71875 0
0.4375 0.71875 0
0.375 0.71875 0
0.40625 0.71875 0
0.375 0.75 0
0.40625 0.75 0
0.40625 0.71875 0
0.4375 0.71875 0
0.40625 0.75 0
0.4375 0.75 0
0.4375 0.6875 0
0.46875 0.6875 0
0.4375 0.71875 0
0.46875 0.71875 0
0.46875 0.6875 0
0.5 0.6875 0
0.46875 0.71875 0
0.5 0.71875 0
0.4375 0.71875 0
0.46875 0.71875 0
0.4375 0.75 0
0.46875 0.75 0
0.46875 0.71875 0
0.5 0.71875 0
0.46875 0.75 0
0.5 0.75 0
0 0.75 0
0.03125 0.75 0
0 0.78125 0
0.03125 0.78125 0
0.03125 0.75 0
0.0625 0.75 0
0.03125 0.78125 0
0.0625 0.78125 0
0 0.78125 0
0.03125 0.78125 0
0 0.8125 0
0.03125 0.8125 0
0.03125 0.78125 0
0.0625 0.78125 0
0.03125 0.8125 0
0.0625 0.8125 0
0.0625 0.75 0
0.09375 0.75 0
0.0625 0.78125 0
0.09375 0.78125 0
0.09375 0.75 0
0.125 0.75 0
0.09375 0.78125 0
0.125 0.78125 0
0.0625 0.78125 0
0.09375 0.78125 0
0.0625 0.8125 0
0.09375 0.8125 0
0.09375 0.78125 0
0.125 0.78125 0
0.09375 0.8125 0
0.125 0.8125 0
0 0.8125 0
0.03125 0.8125 0
0 0.84375 0
0.03125 0.84375 0
0.03125 0.8125 0
0.0625 0.8125 0
0.03125 0.84375 0
0.0625 0.84375 0
0 0.84375 0
0.03125 0.84375 0
0 0.875 0
0.03125 0.875 0
0.03125 0.84375 0
0.0625 0.84375 0
0.03125 0.875 0
0.0625 0.875 0
0.0625 0.8125 0
0.09375 0.8125 0
0.0625 0.84375 0
0.09375 0.84375 0
0.09375 0.8125 0
0.125 0.8125 0
0.09375 0.84375 0
0.125 0.84375 0
0.0625 0.84375 0
0.09375 0.84375 0
0.0625 0.875 0
0.09375 0.875 0
0.09375 0.84375 0
0.125 0.84375 0
0.09375 0.875 0
0.125 0.875 0
0.125 0.75 0
0.15625 0.75 0
0.125 0.78125 0
0.15625 0.78125 0
0.15625 0.75 0
0.1875 0.75 0
0.15625 0.78125 0
0.1875 0.78125 0
0.125 0.78125 0
0.15625 0.78125 0
0.125 0.8125 0
0.15625 0.8125 0
0.15625 0.78125 0
0.1875 0.78125 0
0.15625 0.8125 0
0.1875 0.8125 0
0.1875 0.75 0
0.21875 0.75 0
0.1875 0.78125 0
0.21875 0.78125 0
0.21875 0.75 0
0.25 0.75 0
0.21875 0.78125 0
0.25 0.78125 0
0.1875 0.78125 0
0.21875 0.78125 0
0.1875 0.8125 0
0.21875 0.8125 0
0.21875 0.78125 0
0.25 0.78125 0
0.21875 0.8125 0
0.25 0.8125 0
0.125 0.8125 0
0.15625 0.8125 0
0.125 0.84375 0
0.15625 0.84375 0
0.15625 0.8125 0
[...]
POINT_DATA 4096
SCALARS x_dis double 1
LOOKUP_TABLE default
8.06837e-06 8.06867e-06 -1.58829e-05 -1.58824e-05 8.06867e-06 8.06952e-06 -1.58824e-05 -1.58812e-05 -1.58829e-05 -1.58824e-05 -7.23848e-05 -7.23839e-05 -1.58824e-05 -1.58812e-05 -7.23839e-05 -7.23821e-05 8.06952e-06 8.07084e-06 -1.58812e-05 -1.58794e-05 8.07084e-06 8.07251e-06 -1.58794e-05 -1.58773e-05 -1.58812e-05 -1.58794e-05 -7.23821e-05 -7.23797e-05 -1.58794e-05 -1.58773e-05 -7.23797e-05 -7.2377e-05 -7.23848e-05 -7.23839e-05 -0.00015578 -0.000155778 -7.23839e-05 -7.23821e-05 -0.000155778 -0.000155776 -0.00015578 -0.000155778 -0.000255088 -0.000255085 -0.000155778 -0.000155776 -0.000255085 -0.000255081 -7.23821e-05 -7.23797e-05 -0.000155776 -0.000155773 -7.23797e-05 -7.2377e-05 -0.000155773 -0.000155769 -0.000155776 -0.000155773 -0.000255081 -0.000255077 -0.000155773 -0.000155769 -0.000255077 -0.000255073 8.07251e-06 8.07441e-06 -1.58773e-05 -1.5875e-05 8.07441e-06 8.07645e-06 -1.5875e-05 -1.58725e-05 -1.58773e-05 -1.5875e-05 -7.2377e-05 -7.23742e-05 -1.5875e-05 -1.58725e-05 -7.23742e-05 -7.23712e-05 8.07645e-06 8.07863e-06 -1.58725e-05 -1.58694e-05 8.07863e-06 8.081e-06 -1.58694e-05 -1.58653e-05 -1.58725e-05 -1.58694e-05 -7.23712e-05 -7.23672e-05 -1.58694e-05 -1.58653e-05 -7.23672e-05 -7.23617e-05 -7.2377e-05 -7.23742e-05 -0.000155769 -0.000155766 -7.23742e-05 -7.23712e-05 -0.000155766 -0.000155762 -0.000155769 -0.000155766 -0.000255073 -0.000255068 -0.000155766 -0.000155762 -0.000255068 -0.000255064 -7.23712e-05 -7.23672e-05 -0.000155762 -0.000155757 -7.23672e-05 -7.23617e-05 -0.000155757 -0.000155751 -0.000155762 -0.000155757 -0.000255064 -0.000255059 -0.000155757 -0.000155751 -0.000255059 -0.000255052 -0.000255088 -0.000255085 -0.000361564 -0.00036156 -0.000255085 -0.000255081 -0.00036156 -0.000361555 -0.000361564 -0.00036156 -0.000470584 -0.000470578 -0.00036156 -0.000361555 -0.000470578 -0.000470571 -0.000255081 -0.000255077 -0.000361555 -0.000361549 -0.000255077 -0.000255073 -0.000361549 -0.000361544 -0.000361555 -0.000361549 -0.000470571 -0.000470565 -0.000361549 -0.000361544 -0.000470565 -0.000470558 -0.000470584 -0.000470578 -0.000580326 -0.000580318 -0.000470578 -0.000470571 -0.000580318 -0.00058031 -0.000580326 -0.000580318 -0.000690241 -0.000690231 -0.000580318 -0.00058031 -0.000690231 -0.000690221 -0.000470571 -0.000470565 -0.00058031 -0.000580302 -0.000470565 -0.000470558 -0.000580302 -0.000580294 -0.00058031 -0.000580302 -0.000690221 -0.000690212 -0.000580302 -0.000580294 -0.000690212 -0.000690203 -0.000255073 -0.000255068 -0.000361544 -0.000361538 -0.000255068 -0.000255064 -0.000361538 -0.000361533 -0.000361544 -0.000361538 -0.000470558 -0.000470552 -0.000361538 -0.000361533 -0.000470552 -0.000470546 -0.000255064 -0.000255059 -0.000361533 -0.000361528 -0.000255059 -0.000255052 -0.000361528 -0.000361522 -0.000361533 -0.000361528 -0.000470546 -0.00047054 -0.000361528 -0.000361522 -0.00047054 -0.000470534 -0.000470558 -0.000470552 -0.000580294 -0.000580287 -0.000470552 -0.000470546 -0.000580287 -0.00058028 -0.000580294 -0.000580287 -0.000690203 -0.000690195 -0.000580287 -0.00058028 -0.000690195 -0.000690188 -0.000470546 -0.00047054 -0.00058028 -0.000580274 -0.00047054 -0.000470534 -0.000580274 -0.000580268 -0.00058028 -0.000580274 -0.000690188 -0.000690181 -0.000580274 -0.000580268 -0.000690181 -0.000690175 8.081e-06 8.08346e-06 -1.58653e-05 -1.58603e-05 8.08346e-06 8.08545e-06 -1.58603e-05 -1.58591e-05 -1.58653e-05 -1.58603e-05 -7.23617e-05 -7.23553e-05 -1.58603e-05 -1.58591e-05 -7.23553e-05 -7.23533e-05 8.08545e-06 8.0862e-06 -1.58591e-05 -1.58751e-05 8.0862e-06 8.08638e-06 -1.58751e-05 -1.59169e-05 -1.58591e-05 -1.58751e-05 -7.23533e-05 -7.23711e-05 -1.58751e-05 -1.59169e-05 -7.23711e-05 -7.2422e-05 -7.23617e-05 -7.23553e-05 -0.000155751 -0.000155744 -7.23553e-05 -7.23533e-05 -0.000155744 -0.000155741 -0.000155751 -0.000155744 -0.000255052 -0.000255045 -0.000155744 -0.000155741 -0.000255045 -0.00025504 -7.23533e-05 -7.23711e-05 -0.000155741 -0.000155751 -7.23711e-05 -7.2422e-05 -0.000155751 -0.000155782 -0.000155741 -0.000155751 -0.00025504 -0.000255043 -0.000155751 -0.000155782 -0.000255043 -0.000255059 8.08638e-06 8.08907e-06 -1.59169e-05 -1.59344e-05 8.08907e-06 8.0951e-06 -1.59344e-05 -1.57597e-05 -1.59169e-05 -1.59344e-05 -7.2422e-05 -7.24699e-05 -1.59344e-05 -1.57597e-05 -7.24699e-05 -7.24096e-05 8.0951e-06 8.09226e-06 -1.57597e-05 -1.51009e-05 8.09226e-06 8.0785e-06 -1.51009e-05 -1.34613e-05 -1.57597e-05 -1.51009e-05 -7.24096e-05 -7.21537e-05 -1.51009e-05 -1.34613e-05 -7.21537e-05 -7.19452e-05 -7.2422e-05 -7.24699e-05 -0.000155782 -0.00015582 -7.24699e-05 -7.24096e-05 -0.00015582 -0.000155847 -0.000155782 -0.00015582 -0.000255059 -0.000255075 -0.00015582 -0.000155847 -0.000255075 -0.000255078 -7.24096e-05 -7.21537e-05 -0.000155847 -0.000155951 -7.21537e-05 -7.19452e-05 -0.000155951 -0.000156279 -0.000155847 -0.000155951 -0.000255078 -0.000255083 -0.000155951 -0.000156279 -0.000255083 -0.000255126 -0.000255052 -0.000255045 -0.000361522 -0.000361514 -0.000255045 -0.00025504 -0.000361514 -0.000361506 -0.000361522 -0.000361514 -0.000470534 -0.000470527 -0.000361514 -0.000361506 -0.000470527 -0.000470519 -0.00025504 -0.000255043 -0.000361506 -0.000361503 -0.000255043 -0.000255059 -0.000361503 -0.000361511 -0.000361506 -0.000361503 -0.000470519 -0.000470511 -0.000361503 -0.000361511 -0.000470511 -0.000470507 -0.000470534 -0.000470527 -0.000580268 -0.000580262 -0.000470527 -0.000470519 -0.000580262 -0.000580256 -0.000580268 -0.000580262 -0.000690175 -0.00069017 -0.000580262 -0.000580256 -0.00069017 -0.000690164 -0.000470519 -0.000470511 -0.000580256 -0.000580248 -0.000470511 -0.000470507 -0.000580248 -0.000580238 -0.000580256 -0.000580248 -0.000690164 -0.000690158 -0.000580248 -0.000580238 -0.000690158 -0.000690152 -0.000255059 -0.000255075 -0.000361511 -0.000361526 -0.000255075 -0.000255078 -0.000361526 -0.000361527 -0.000361511 -0.000361526 -0.000470507 -0.000470513 -0.000361526 -0.000361527 -0.000470513 -0.000470525 -0.000255078 -0.000255083 -0.000361527 -0.000361483 -0.000255083 -0.000255126 -0.000361483 -0.000361381 -0.000361527 -0.000361483 -0.000470525 -0.000470528 -0.000361483 -0.000361381 -0.000470528 -0.000470509 -0.000470507 -0.000470513 -0.000580238 -0.00058023 -0.000470513 -0.000470525 -0.00058023 -0.000580228 -0.000580238 -0.00058023 -0.000690152 -0.000690143 -0.00058023 -0.000580228 -0.000690143 -0.000690134 -0.000470525 -0.000470528 -0.000580228 -0.000580235 -0.000470528 -0.000470509 -0.000580235 -0.000580249 -0.000580228 -0.000580235 -0.000690134 -0.000690127 -0.000580235 -0.000580249 -0.000690127 -0.000690124 -0.000690241 -0.000690231 -0.00080019 -0.000800178 -0.000690231 -0.000690221 -0.000800178 -0.000800167 -0.00080019 -0.000800178 -0.000910152 -0.000910139 -0.000800178 -0.000800167 -0.000910139 -0.000910126 -0.000690221 -0.000690212 -0.000800167 -0.000800157 -0.000690212 -0.000690203 -0.000800157 -0.000800147 -0.000800167 -0.000800157 -0.000910126 -0.000910114 -0.000800157 -0.000800147 -0.000910114 -0.000910104 -0.000910152 -0.000910139 -0.00102012 -0.0010201 -0.000910139 -0.000910126 -0.0010201 -0.00102009 -0.00102012 -0.0010201 -0.0011301 -0.00113008 -0.0010201 -0.00102009 -0.00113008 -0.00113006 -0.000910126 -0.000910114 -0.00102009 -0.00102008 -0.000910114 -0.000910104 -0.00102008 -0.00102007 -0.00102009 -0.00102008 -0.00113006 -0.00113005 -0.00102008 -0.00102007 -0.00113005 -0.00113004 -0.000690203 -0.000690195 -0.000800147 -0.000800138 -0.000690195 -0.000690188 -0.000800138 -0.00080013 -0.000800147 -0.000800138 -0.000910104 -0.000910094 -0.000800138 -0.00080013 -0.000910094 -0.000910086 -0.000690188 -0.000690181 -0.00080013 -0.000800123 -0.000690181 -0.000690175 -0.000800123 -0.000800117 -0.00080013 -0.000800123 -0.000910086 -0.000910079 -0.000800123 -0.000800117 -0.000910079 -0.000910073 -0.000910104 -0.000910094 -0.00102007 -0.00102006 -0.000910094 -0.000910086 -0.00102006 -0.00102005 -0.00102007 -0.00102006 -0.00113004 -0.00113003 -0.00102006 -0.00102005 -0.00113003 -0.00113002 -0.000910086 -0.000910079 -0.00102005 -0.00102004 -0.000910079 -0.000910073 -0.00102004 -0.00102004 -0.00102005 -0.00102004 -0.00113002 -0.00113001 -0.00102004 -0.00102004 -0.00113001 -0.00113001 -0.0011301 -0.00113008 -0.00124008 -0.00124006 -0.00113008 -0.00113006 -0.00124006 -0.00124004 -0.00124008 -0.00124006 -0.00135006 -0.00135004 -0.00124006 -0.00124004 -0.00135004 -0.00135002 -0.00113006 -0.00113005 -0.00124004 -0.00124003 -0.00113005 -0.00113004 -0.00124003 -0.00124002 -0.00124004 -0.00124003 -0.00135002 -0.00135001 -0.00124003 -0.00124002 -0.00135001 -0.00135 -0.00135006 -0.00135004 -0.00146005 -0.00146002 -0.00135004 -0.00135002 -0.00146002 -0.00146001 -0.00146005 -0.00146002 -0.00157 -0.00157 -0.00146002 -0.00146001 -0.00157 -0.00157 -0.00135002 -0.00135001 -0.00146001 -0.00146 -0.00135001 -0.00135 -0.00146 -0.00146 -0.00146001 -0.00146 -0.00157 -0.00157 -0.00146 -0.00146 -0.00157 -0.00157 -0.00113004 -0.00113003 -0.00124002 -0.00124001 -0.00113003 -0.00113002 -0.00124001 -0.00124 -0.00124002 -0.00124001 -0.00135 -0.00135 -0.00124001 -0.00124 -0.00135 -0.00134999 -0.00113002 -0.00113001 -0.00124 -0.00124 -0.00113001 -0.00113001 -0.00124 -0.00123999 -0.00124 -0.00124 -0.00134999 -0.00134999 -0.00124 -0.00123999 -0.00134999 -0.00134998 -0.00135 -0.00135 -0.00146 -0.00145999 -0.00135 -0.00134999 -0.00145999 -0.00145999 -0.00146 -0.00145999 -0.00157 -0.00157 -0.00145999 -0.00145999 -0.00157 -0.00157 -0.00134999 -0.00134999 -0.00145999 -0.00145999 -0.00134999 -0.00134998 -0.00145999 -0.00145999 -0.00145999 -0.00145999 -0.00157 -0.00157 -0.00145999 -0.00145999 -0.00157 -0.00157 -0.000690175 -0.00069017 -0.000800117 -0.000800112 -0.00069017 -0.000690164 -0.000800112 -0.000800107 -0.000800117 -0.000800112 -0.000910073 -0.000910068 -0.000800112 -0.000800107 -0.000910068 -0.000910063 -0.000690164 -0.000690158 -0.000800107 -0.000800102 -0.000690158 -0.000690152 -0.000800102 -0.000800097 -0.000800107 -0.000800102 -0.000910063 -0.000910059 -0.000800102 -0.000800097 -0.000910059 -0.000910054 -0.000910073 -0.000910068 -0.00102004 -0.00102003 -0.000910068 -0.000910063 -0.00102003 -0.00102003 -0.00102004 -0.00102003 -0.00113001 -0.00113001 -0.00102003 -0.00102003 -0.00113001 -0.00113 -0.000910063 -0.000910059 -0.00102003 -0.00102002 -0.000910059 -0.000910054 -0.00102002 -0.00102002 -0.00102003 -0.00102002 -0.00113 -0.00113 -0.00102002 -0.00102002 -0.00113 -0.00112999 -0.000690152 -0.000690143 -0.000800097 -0.000800093 -0.000690143 -0.000690134 -0.000800093 -0.000800088 -0.000800097 -0.000800093 -0.000910054 -0.00091005 -0.000800093 -0.000800088 -0.00091005 -0.000910047 -0.000690134 -0.000690127 -0.000800088 -0.000800082 -0.000690127 -0.000690124 -0.000800082 -0.000800077 -0.000800088 -0.000800082 -0.000910047 -0.000910043 -0.000800082 -0.000800077 -0.000910043 -0.00091004 -0.000910054 -0.00091005 -0.00102002 -0.00102002 -0.00091005 -0.000910047 -0.00102002 -0.00102001 -0.00102002 -0.00102002 -0.00112999 -0.00112999 -0.00102002 -0.00102001 -0.00112999 -0.00112999 -0.000910047 -0.000910043 -0.00102001 -0.00102001 -0.000910043 -0.00091004 -0.00102001 -0.00102 -0.00102001 -0.00102001 -0.00112999 -0.00112999 -0.00102001 -0.00102 -0.00112999 -0.00112998 -0.00113001 -0.00113001 -0.00123999 -0.00123999 -0.00113001 -0.00113 -0.00123999 -0.00123999 -0.00123999 -0.00123999 -0.00134998 -0.00134998 -0.00123999 -0.00123999 -0.00134998 -0.00134998 -0.00113 -0.00113 -0.00123999 -0.00123998 -0.00113 -0.00112999 -0.00123998 -0.00123998 -0.00123999 -0.00123998 -0.00134998 -0.00134998 -0.00123998 -0.00123998 -0.00134998 -0.00134998 -0.00134998 -0.00134998 -0.00145999 -0.00145999 -0.00134998 -0.00134998 -0.00145999 -0.00145999 -0.00145999 -0.00145999 -0.00157 -0.00157 -0.00145999 -0.00145999 -0.00157 -0.00157 -0.00134998 -0.00134998 -0.00145999 -0.00145999 -0.00134998 -0.00134998 -0.00145999 -0.00145998 -0.00145999 -0.00145999 -0.00157 -0.00157 -0.00145999 -0.00145998 -0.00157 -0.00157 -0.00112999 -0.00112999 -0.00123998 -0.00123998 -0.00112999 -0.00112999 -0.00123998 -0.00123998 -0.00123998 -0.00123998 -0.00134998 -0.00134998 -0.00123998 -0.00123998 -0.00134998 -0.00134997 -0.00112999 -0.00112999 -0.00123998 -0.00123997 -0.00112999 -0.00112998 -0.00123997 -0.00123997 -0.00123998 -0.00123997 -0.00134997 -0.00134997 -0.00123997 -0.00123997 -0.00134997 -0.00134997 -0.00134998 -0.00134998 -0.00145998 -0.00145998 -0.00134998 -0.00134997 -0.00145998 -0.00145998 -0.00145998 -0.00145998 -0.00157 -0.00157 -0.00145998 -0.00145998 -0.00157 -0.00157 -0.00134997 -0.00134997 -0.00145998 -0.00145998 -0.00134997 -0.00134997 -0.00145998 -0.00145998 -0.00145998 -0.00145998 -0.00157 -0.00157 -0.00145998 -0.00145998 -0.00157 -0.00157 8.0785e-06 1.06296e-05 -1.34613e-05 -1.14831e-05 1.06296e-05 1.40242e-05 -1.14831e-05 -9.74038e-06 -1.34613e-05 -1.14831e-05 -7.19452e-05 -7.19767e-05 -1.14831e-05 -9.74038e-06 -7.19767e-05 -7.20546e-05 1.40242e-05 1.59225e-05 -9.74038e-06 -8.51181e-06 1.59225e-05 1.65205e-05 -8.51181e-06 -8.0693e-06 -9.74038e-06 -8.51181e-06 -7.20546e-05 -7.2006e-05 -8.51181e-06 -8.0693e-06 -7.2006e-05 -7.19811e-05 -7.19452e-05 -7.19767e-05 -0.000156279 -0.000156795 -7.19767e-05 -7.20546e-05 -0.000156795 -0.000157213 -0.000156279 -0.000156795 -0.000255126 -0.000255175 -0.000156795 -0.000157213 -0.000255175 -0.000255156 -7.20546e-05 -7.2006e-05 -0.000157213 -0.000157365 -7.2006e-05 -7.19811e-05 -0.000157365 -0.00015738 -0.000157213 -0.000157365 -0.000255156 -0.000255077 -0.000157365 -0.00015738 -0.000255077 -0.000255025 1.65205e-05 1.65308e-05 -8.0693e-06 -8.17252e-06 1.65308e-05 1.63559e-05 -8.17252e-06 -8.39632e-06 -8.0693e-06 -8.17252e-06 -7.19811e-05 -7.20873e-05 -8.17252e-06 -8.39632e-06 -7.20873e-05 -7.22175e-05 1.63559e-05 1.62027e-05 -8.39632e-06 -8.50833e-06 1.62027e-05 1.61622e-05 -8.50833e-06 -8.51016e-06 -8.39632e-06 -8.50833e-06 -7.22175e-05 -7.22742e-05 -8.50833e-06 -8.51016e-06 -7.22742e-05 -7.22699e-05 -7.19811e-05 -7.20873e-05 -0.00015738 -0.000157412 -7.20873e-05 -7.22175e-05 -0.000157412 -0.000157467 -0.00015738 -0.000157412 -0.000255025 -0.000255041 -0.000157412 -0.000157467 -0.000255041 -0.00025508 -7.22175e-05 -7.22742e-05 -0.000157467 -0.000157498 -7.22742e-05 -7.22699e-05 -0.000157498 -0.000157499 -0.000157467 -0.000157498 -0.00025508 -0.0002551 -0.000157498 -0.000157499 -0.0002551 -0.000255095 -0.000255126 -0.000255175 -0.000361381 -0.000361236 -0.000255175 -0.000255156 -0.000361236 -0.000361097 -0.000361381 -0.000361236 -0.000470509 -0.000470479 -0.000361236 -0.000361097 -0.000470479 -0.000470466 -0.000255156 -0.000255077 -0.000361097 -0.000361019 -0.000255077 -0.000255025 -0.000361019 -0.00036102 -0.000361097 -0.000361019 -0.000470466 -0.000470484 -0.000361019 -0.00036102 -0.000470484 -0.000470517 -0.000470509 -0.000470479 -0.000580249 -0.000580269 -0.000470479 -0.000470466 -0.000580269 -0.00058029 -0.000580249 -0.000580269 -0.000690124 -0.000690123 -0.000580269 -0.00058029 -0.000690123 -0.00069012 -0.000470466 -0.000470484 -0.00058029 -0.000580306 -0.000470484 -0.000470517 -0.000580306 -0.000580308 -0.00058029 -0.000580306 -0.00069012 -0.000690112 -0.000580306 -0.000580308 -0.000690112 -0.000690101 -0.000255025 -0.000255041 -0.00036102 -0.000361058 -0.000255041 -0.00025508 -0.000361058 -0.000361083 -0.00036102 -0.000361058 -0.000470517 -0.000470535 -0.000361058 -0.000361083 -0.000470535 -0.000470531 -0.00025508 -0.0002551 -0.000361083 -0.000361083 -0.0002551 -0.000255095 -0.000361083 -0.000361069 -0.000361083 -0.000361083 -0.000470531 -0.000470517 -0.000361083 -0.000361069 -0.000470517 -0.000470505 -0.000470517 -0.000470535 -0.000580308 -0.000580298 -0.000470535 -0.000470531 -0.000580298 -0.000580284 -0.000580308 -0.000580298 -0.000690101 -0.000690091 -0.000580298 -0.000580284 -0.000690091 -0.000690084 -0.000470531 -0.000470517 -0.000580284 -0.000580274 -0.000470517 -0.000470505 -0.000580274 -0.000580267 -0.000580284 -0.000580274 -0.000690084 -0.000690079 -0.000580274 -0.000580267 -0.000690079 -0.000690073 1.61622e-05 1.61945e-05 -8.51016e-06 -8.47792e-06 1.61945e-05 1.62265e-05 -8.47792e-06 -8.45658e-06 -8.51016e-06 -8.47792e-06 -7.22699e-05 -7.22504e-05 -8.47792e-06 -8.45658e-06 -7.22504e-05 -7.22371e-05 1.62265e-05 1.62359e-05 -8.45658e-06 -8.45134e-06 1.62359e-05 1.62355e-05 -8.45134e-06 -8.45185e-06 -8.45658e-06 -8.45134e-06 -7.22371e-05 -7.22317e-05 -8.45134e-06 -8.45185e-06 -7.22317e-05 -7.22301e-05 -7.22699e-05 -7.22504e-05 -0.000157499 -0.000157486 -7.22504e-05 -7.22371e-05 -0.000157486 -0.000157473 -0.000157499 -0.000157486 -0.000255095 -0.000255081 -0.000157486 -0.000157473 -0.000255081 -0.00025507 -7.22371e-05 -7.22317e-05 -0.000157473 -0.000157467 -7.22317e-05 -7.22301e-05 -0.000157467 -0.000157465 -0.000157473 -0.000157467 -0.00025507 -0.000255065 -0.000157467 -0.000157465 -0.000255065 -0.000255063 1.62355e-05 1.6236e-05 -8.45185e-06 -8.45089e-06 1.6236e-05 1.62389e-05 -8.45089e-06 -8.44823e-06 -8.45185e-06 -8.45089e-06 -7.22301e-05 -7.22286e-05 -8.45089e-06 -8.44823e-06 -7.22286e-05 -7.22263e-05 1.62389e-05 1.62416e-05 -8.44823e-06 -8.44596e-06 1.62416e-05 1.62427e-05 -8.44596e-06 -8.44511e-06 -8.44823e-06 -8.44596e-06 -7.22263e-05 -7.2224e-05 -8.44596e-06 -8.44511e-06 -7.2224e-05 -7.22229e-05 -7.22301e-05 -7.22286e-05 -0.000157465 -0.000157463 -7.22286e-05 -7.22263e-05 -0.000157463 -0.00015746 -0.000157465 -0.000157463 -0.000255063 -0.00025506 -0.000157463 -0.00015746 -0.00025506 -0.000255056 -7.22263e-05 -7.2224e-05 -0.00015746 -0.000157457 -7.2224e-05 -7.22229e-05 -0.000157457 -0.000157455 -0.00015746 -0.000157457 -0.000255056 -0.000255052 -0.000157457 -0.000157455 -0.000255052 -0.000255048 -0.000255095 -0.000255081 -0.000361069 -0.000361057 -0.000255081 -0.00025507 -0.000361057 -0.000361049 -0.000361069 -0.000361057 -0.000470505 -0.000470497 -0.000361057 -0.000361049 -0.000470497 -0.000470492 -0.00025507 -0.000255065 -0.000361049 -0.000361045 -0.000255065 -0.000255063 -0.000361045 -0.000361042 -0.000361049 -0.000361045 -0.000470492 -0.000470487 -0.000361045 -0.000361042 -0.000470487 -0.000470482 -0.000470505 -0.000470497 -0.000580267 -0.000580261 -0.000470497 -0.000470492 -0.000580261 -0.000580256 -0.000580267 -0.000580261 -0.000690073 -0.000690067 -0.000580261 -0.000580256 -0.000690067 -0.000690061 -0.000470492 -0.000470487 -0.000580256 -0.00058025 -0.000470487 -0.000470482 -0.00058025 -0.000580243 -0.000580256 -0.00058025 -0.000690061 -0.000690054 -0.00058025 -0.000580243 -0.000690054 -0.000690046 -0.000255063 -0.00025506 -0.000361042 -0.000361037 -0.00025506 -0.000255056 -0.000361037 -0.000361032 -0.000361042 -0.000361037 -0.000470482 -0.000470476 -0.000361037 -0.000361032 -0.000470476 -0.000470469 -0.000255056 -0.000255052 -0.000361032 -0.000361027 -0.000255052 -0.000255048 -0.000361027 -0.000361022 -0.000361032 -0.000361027 -0.000470469 -0.000470463 -0.000361027 -0.000361022 -0.000470463 -0.000470456 -0.000470482 -0.000470476 -0.000580243 -0.000580236 -0.000470476 -0.000470469 -0.000580236 -0.000580228 -0.000580243 -0.000580236 -0.000690046 -0.000690038 -0.000580236 -0.000580228 -0.000690038 -0.000690029 -0.000470469 -0.000470463 -0.000580228 -0.00058022 -0.000470463 -0.000470456 -0.00058022 -0.000580212 -0.000580228 -0.00058022 -0.000690029 -0.000690019 -0.00058022 -0.000580212 -0.000690019 -0.00069001 -0.000690124 -0.000690123 -0.000800077 -0.000800071 -0.000690123 -0.00069012 -0.000800071 -0.000800065 -0.000800077 -0.000800071 -0.00091004 -0.000910037 -0.000800071 -0.000800065 -0.000910037 -0.000910033 -0.00069012 -0.000690112 -0.000800065 -0.000800059 -0.000690112 -0.000690101 -0.000800059 -0.000800054 -0.000800065 -0.000800059 -0.000910033 -0.00091003 -0.000800059 -0.000800054 -0.00091003 -0.000910027 -0.00091004 -0.000910037 -0.00102 -0.00102 -0.000910037 -0.000910033 -0.00102 -0.00102 -0.00102 -0.00102 -0.00112998 -0.00112998 -0.00102 -0.00102 -0.00112998 -0.00112997 -0.000910033 -0.00091003 -0.00102 -0.00101999 -0.00091003 -0.000910027 -0.00101999 -0.00101999 -0.00102 -0.00101999 -0.00112997 -0.00112997