# vtk DataFile Version 3.0
#This file was generated by the deal.II library on 2022/11/16 at 21:28:09
ASCII
DATASET UNSTRUCTURED_GRID

POINTS 4096 double
0 0.5 0
0.03125 0.5 0
0 0.53125 0
0.03125 0.53125 0
0.03125 0.5 0
0.0625 0.5 0
0.03125 0.53125 0
0.0625 0.53125 0
0 0.53125 0
0.03125 0.53125 0
0 0.5625 0
0.03125 0.5625 0
0.03125 0.53125 0
0.0625 0.53125 0
0.03125 0.5625 0
0.0625 0.5625 0
0.0625 0.5 0
0.09375 0.5 0
0.0625 0.53125 0
0.09375 0.53125 0
0.09375 0.5 0
0.125 0.5 0
0.09375 0.53125 0
0.125 0.53125 0
0.0625 0.53125 0
0.09375 0.53125 0
0.0625 0.5625 0
0.09375 0.5625 0
0.09375 0.53125 0
0.125 0.53125 0
0.09375 0.5625 0
0.125 0.5625 0
0 0.5625 0
0.03125 0.5625 0
0 0.59375 0
0.03125 0.59375 0
0.03125 0.5625 0
0.0625 0.5625 0
0.03125 0.59375 0
0.0625 0.59375 0
0 0.59375 0
0.03125 0.59375 0
0 0.625 0
0.03125 0.625 0
0.03125 0.59375 0
0.0625 0.59375 0
0.03125 0.625 0
0.0625 0.625 0
0.0625 0.5625 0
0.09375 0.5625 0
0.0625 0.59375 0
0.09375 0.59375 0
0.09375 0.5625 0
0.125 0.5625 0
0.09375 0.59375 0
0.125 0.59375 0
0.0625 0.59375 0
0.09375 0.59375 0
0.0625 0.625 0
0.09375 0.625 0
0.09375 0.59375 0
0.125 0.59375 0
0.09375 0.625 0
0.125 0.625 0
0.125 0.5 0
0.15625 0.5 0
0.125 0.53125 0
0.15625 0.53125 0
0.15625 0.5 0
0.1875 0.5 0
0.15625 0.53125 0
0.1875 0.53125 0
0.125 0.53125 0
0.15625 0.53125 0
0.125 0.5625 0
0.15625 0.5625 0
0.15625 0.53125 0
0.1875 0.53125 0
0.15625 0.5625 0
0.1875 0.5625 0
0.1875 0.5 0
0.21875 0.5 0
0.1875 0.53125 0
0.21875 0.53125 0
0.21875 0.5 0
0.25 0.5 0
0.21875 0.53125 0
0.25 0.53125 0
0.1875 0.53125 0
0.21875 0.53125 0
0.1875 0.5625 0
0.21875 0.5625 0
0.21875 0.53125 0
0.25 0.53125 0
0.21875 0.5625 0
0.25 0.5625 0
0.125 0.5625 0
0.15625 0.5625 0
0.125 0.59375 0
0.15625 0.59375 0
0.15625 0.5625 0
0.1875 0.5625 0
0.15625 0.59375 0
0.1875 0.59375 0
0.125 0.59375 0
0.15625 0.59375 0
0.125 0.625 0
0.15625 0.625 0
0.15625 0.59375 0
0.1875 0.59375 0
0.15625 0.625 0
0.1875 0.625 0
0.1875 0.5625 0
0.21875 0.5625 0
0.1875 0.59375 0
0.21875 0.59375 0
0.21875 0.5625 0
0.25 0.5625 0
0.21875 0.59375 0
0.25 0.59375 0
0.1875 0.59375 0
0.21875 0.59375 0
0.1875 0.625 0
0.21875 0.625 0
0.21875 0.59375 0
0.25 0.59375 0
0.21875 0.625 0
0.25 0.625 0
0 0.625 0
0.03125 0.625 0
0 0.65625 0
0.03125 0.65625 0
0.03125 0.625 0
0.0625 0.625 0
0.03125 0.65625 0
0.0625 0.65625 0
0 0.65625 0
0.03125 0.65625 0
0 0.6875 0
0.03125 0.6875 0
0.03125 0.65625 0
0.0625 0.65625 0
0.03125 0.6875 0
0.0625 0.6875 0
0.0625 0.625 0
0.09375 0.625 0
0.0625 0.65625 0
0.09375 0.65625 0
0.09375 0.625 0
0.125 0.625 0
0.09375 0.65625 0
0.125 0.65625 0
0.0625 0.65625 0
0.09375 0.65625 0
0.0625 0.6875 0
0.09375 0.6875 0
0.09375 0.65625 0
0.125 0.65625 0
0.09375 0.6875 0
0.125 0.6875 0
0 0.6875 0
0.03125 0.6875 0
0 0.71875 0
0.03125 0.71875 0
0.03125 0.6875 0
0.0625 0.6875 0
0.03125 0.71875 0
0.0625 0.71875 0
0 0.71875 0
0.03125 0.71875 0
0 0.75 0
0.03125 0.75 0
0.03125 0.71875 0
0.0625 0.71875 0
0.03125 0.75 0
0.0625 0.75 0
0.0625 0.6875 0
0.09375 0.6875 0
0.0625 0.71875 0
0.09375 0.71875 0
0.09375 0.6875 0
0.125 0.6875 0
0.09375 0.71875 0
0.125 0.71875 0
0.0625 0.71875 0
0.09375 0.71875 0
0.0625 0.75 0
0.09375 0.75 0
0.09375 0.71875 0
0.125 0.71875 0
0.09375 0.75 0
0.125 0.75 0
0.125 0.625 0
0.15625 0.625 0
0.125 0.65625 0
0.15625 0.65625 0
0.15625 0.625 0
0.1875 0.625 0
0.15625 0.65625 0
0.1875 0.65625 0
0.125 0.65625 0
0.15625 0.65625 0
0.125 0.6875 0
0.15625 0.6875 0
0.15625 0.65625 0
0.1875 0.65625 0
0.15625 0.6875 0
0.1875 0.6875 0
0.1875 0.625 0
0.21875 0.625 0
0.1875 0.65625 0
0.21875 0.65625 0
0.21875 0.625 0
0.25 0.625 0
0.21875 0.65625 0
0.25 0.65625 0
0.1875 0.65625 0
0.21875 0.65625 0
0.1875 0.6875 0
0.21875 0.6875 0
0.21875 0.65625 0
0.25 0.65625 0
0.21875 0.6875 0
0.25 0.6875 0
0.125 0.6875 0
0.15625 0.6875 0
0.125 0.71875 0
0.15625 0.71875 0
0.15625 0.6875 0
0.1875 0.6875 0
0.15625 0.71875 0
0.1875 0.71875 0
0.125 0.71875 0
0.15625 0.71875 0
0.125 0.75 0
0.15625 0.75 0
0.15625 0.71875 0
0.1875 0.71875 0
0.15625 0.75 0
0.1875 0.75 0
0.1875 0.6875 0
0.21875 0.6875 0
0.1875 0.71875 0
0.21875 0.71875 0
0.21875 0.6875 0
0.25 0.6875 0
0.21875 0.71875 0
0.25 0.71875 0
0.1875 0.71875 0
0.21875 0.71875 0
0.1875 0.75 0
0.21875 0.75 0
0.21875 0.71875 0
0.25 0.71875 0
0.21875 0.75 0
0.25 0.75 0
0.25 0.5 0
0.28125 0.5 0
0.25 0.53125 0
0.28125 0.53125 0
0.28125 0.5 0
0.3125 0.5 0
0.28125 0.53125 0
0.3125 0.53125 0
0.25 0.53125 0
0.28125 0.53125 0
0.25 0.5625 0
0.28125 0.5625 0
0.28125 0.53125 0
0.3125 0.53125 0
0.28125 0.5625 0
0.3125 0.5625 0
0.3125 0.5 0
0.34375 0.5 0
0.3125 0.53125 0
0.34375 0.53125 0
0.34375 0.5 0
0.375 0.5 0
0.34375 0.53125 0
0.375 0.53125 0
0.3125 0.53125 0
0.34375 0.53125 0
0.3125 0.5625 0
0.34375 0.5625 0
0.34375 0.53125 0
0.375 0.53125 0
0.34375 0.5625 0
0.375 0.5625 0
0.25 0.5625 0
0.28125 0.5625 0
0.25 0.59375 0
0.28125 0.59375 0
0.28125 0.5625 0
0.3125 0.5625 0
0.28125 0.59375 0
0.3125 0.59375 0
0.25 0.59375 0
0.28125 0.59375 0
0.25 0.625 0
0.28125 0.625 0
0.28125 0.59375 0
0.3125 0.59375 0
0.28125 0.625 0
0.3125 0.625 0
0.3125 0.5625 0
0.34375 0.5625 0
0.3125 0.59375 0
0.34375 0.59375 0
0.34375 0.5625 0
0.375 0.5625 0
0.34375 0.59375 0
0.375 0.59375 0
0.3125 0.59375 0
0.34375 0.59375 0
0.3125 0.625 0
0.34375 0.625 0
0.34375 0.59375 0
0.375 0.59375 0
0.34375 0.625 0
0.375 0.625 0
0.375 0.5 0
0.40625 0.5 0
0.375 0.53125 0
0.40625 0.53125 0
0.40625 0.5 0
0.4375 0.5 0
0.40625 0.53125 0
0.4375 0.53125 0
0.375 0.53125 0
0.40625 0.53125 0
0.375 0.5625 0
0.40625 0.5625 0
0.40625 0.53125 0
0.4375 0.53125 0
0.40625 0.5625 0
0.4375 0.5625 0
0.4375 0.5 0
0.46875 0.5 0
0.4375 0.53125 0
0.46875 0.53125 0
0.46875 0.5 0
0.5 0.5 0
0.46875 0.53125 0
0.5 0.53125 0
0.4375 0.53125 0
0.46875 0.53125 0
0.4375 0.5625 0
0.46875 0.5625 0
0.46875 0.53125 0
0.5 0.53125 0
0.46875 0.5625 0
0.5 0.5625 0
0.375 0.5625 0
0.40625 0.5625 0
0.375 0.59375 0
0.40625 0.59375 0
0.40625 0.5625 0
0.4375 0.5625 0
0.40625 0.59375 0
0.4375 0.59375 0
0.375 0.59375 0
0.40625 0.59375 0
0.375 0.625 0
0.40625 0.625 0
0.40625 0.59375 0
0.4375 0.59375 0
0.40625 0.625 0
0.4375 0.625 0
0.4375 0.5625 0
0.46875 0.5625 0
0.4375 0.59375 0
0.46875 0.59375 0
0.46875 0.5625 0
0.5 0.5625 0
0.46875 0.59375 0
0.5 0.59375 0
0.4375 0.59375 0
0.46875 0.59375 0
0.4375 0.625 0
0.46875 0.625 0
0.46875 0.59375 0
0.5 0.59375 0
0.46875 0.625 0
0.5 0.625 0
0.25 0.625 0
0.28125 0.625 0
0.25 0.65625 0
0.28125 0.65625 0
0.28125 0.625 0
0.3125 0.625 0
0.28125 0.65625 0
0.3125 0.65625 0
0.25 0.65625 0
0.28125 0.65625 0
0.25 0.6875 0
0.28125 0.6875 0
0.28125 0.65625 0
0.3125 0.65625 0
0.28125 0.6875 0
0.3125 0.6875 0
0.3125 0.625 0
0.34375 0.625 0
0.3125 0.65625 0
0.34375 0.65625 0
0.34375 0.625 0
0.375 0.625 0
0.34375 0.65625 0
0.375 0.65625 0
0.3125 0.65625 0
0.34375 0.65625 0
0.3125 0.6875 0
0.34375 0.6875 0
0.34375 0.65625 0
0.375 0.65625 0
0.34375 0.6875 0
0.375 0.6875 0
0.25 0.6875 0
0.28125 0.6875 0
0.25 0.71875 0
0.28125 0.71875 0
0.28125 0.6875 0
0.3125 0.6875 0
0.28125 0.71875 0
0.3125 0.71875 0
0.25 0.71875 0
0.28125 0.71875 0
0.25 0.75 0
0.28125 0.75 0
0.28125 0.71875 0
0.3125 0.71875 0
0.28125 0.75 0
0.3125 0.75 0
0.3125 0.6875 0
0.34375 0.6875 0
0.3125 0.71875 0
0.34375 0.71875 0
0.34375 0.6875 0
0.375 0.6875 0
0.34375 0.71875 0
0.375 0.71875 0
0.3125 0.71875 0
0.34375 0.71875 0
0.3125 0.75 0
0.34375 0.75 0
0.34375 0.71875 0
0.375 0.71875 0
0.34375 0.75 0
0.375 0.75 0
0.375 0.625 0
0.40625 0.625 0
0.375 0.65625 0
0.40625 0.65625 0
0.40625 0.625 0
0.4375 0.625 0
0.40625 0.65625 0
0.4375 0.65625 0
0.375 0.65625 0
0.40625 0.65625 0
0.375 0.6875 0
0.40625 0.6875 0
0.40625 0.65625 0
0.4375 0.65625 0
0.40625 0.6875 0
0.4375 0.6875 0
0.4375 0.625 0
0.46875 0.625 0
0.4375 0.65625 0
0.46875 0.65625 0
0.46875 0.625 0
0.5 0.625 0
0.46875 0.65625 0
0.5 0.65625 0
0.4375 0.65625 0
0.46875 0.65625 0
0.4375 0.6875 0
0.46875 0.6875 0
0.46875 0.65625 0
0.5 0.65625 0
0.46875 0.6875 0
0.5 0.6875 0
0.375 0.6875 0
0.40625 0.6875 0
0.375 0.71875 0
0.40625 0.71875 0
0.40625 0.6875 0
0.4375 0.6875 0
0.40625 0.71875 0
0.4375 0.71875 0
0.375 0.71875 0
0.40625 0.71875 0
0.375 0.75 0
0.40625 0.75 0
0.40625 0.71875 0
0.4375 0.71875 0
0.40625 0.75 0
0.4375 0.75 0
0.4375 0.6875 0
0.46875 0.6875 0
0.4375 0.71875 0
0.46875 0.71875 0
0.46875 0.6875 0
0.5 0.6875 0
0.46875 0.71875 0
0.5 0.71875 0
0.4375 0.71875 0
0.46875 0.71875 0
0.4375 0.75 0
0.46875 0.75 0
0.46875 0.71875 0
0.5 0.71875 0
0.46875 0.75 0
0.5 0.75 0
0 0.75 0
0.03125 0.75 0
0 0.78125 0
0.03125 0.78125 0
0.03125 0.75 0
0.0625 0.75 0
0.03125 0.78125 0
0.0625 0.78125 0
0 0.78125 0
0.03125 0.78125 0
0 0.8125 0
0.03125 0.8125 0
0.03125 0.78125 0
0.0625 0.78125 0
0.03125 0.8125 0
0.0625 0.8125 0
0.0625 0.75 0
0.09375 0.75 0
0.0625 0.78125 0
0.09375 0.78125 0
0.09375 0.75 0
0.125 0.75 0
0.09375 0.78125 0
0.125 0.78125 0
0.0625 0.78125 0
0.09375 0.78125 0
0.0625 0.8125 0
0.09375 0.8125 0
0.09375 0.78125 0
0.125 0.78125 0
0.09375 0.8125 0
0.125 0.8125 0
0 0.8125 0
0.03125 0.8125 0
0 0.84375 0
0.03125 0.84375 0
0.03125 0.8125 0
0.0625 0.8125 0
0.03125 0.84375 0
0.0625 0.84375 0
0 0.84375 0
0.03125 0.84375 0
0 0.875 0
0.03125 0.875 0
0.03125 0.84375 0
0.0625 0.84375 0
0.03125 0.875 0
0.0625 0.875 0
0.0625 0.8125 0
0.09375 0.8125 0
0.0625 0.84375 0
0.09375 0.84375 0
0.09375 0.8125 0
0.125 0.8125 0
0.09375 0.84375 0
0.125 0.84375 0
0.0625 0.84375 0
0.09375 0.84375 0
0.0625 0.875 0
0.09375 0.875 0
0.09375 0.84375 0
0.125 0.84375 0
0.09375 0.875 0
0.125 0.875 0
0.125 0.75 0
0.15625 0.75 0
0.125 0.78125 0
0.15625 0.78125 0
0.15625 0.75 0
0.1875 0.75 0
0.15625 0.78125 0
0.1875 0.78125 0
0.125 0.78125 0
0.15625 0.78125 0
0.125 0.8125 0
0.15625 0.8125 0
0.15625 0.78125 0
0.1875 0.78125 0
0.15625 0.8125 0
0.1875 0.8125 0
0.1875 0.75 0
0.21875 0.75 0
0.1875 0.78125 0
0.21875 0.78125 0
0.21875 0.75 0
0.25 0.75 0
0.21875 0.78125 0
0.25 0.78125 0
0.1875 0.78125 0
0.21875 0.78125 0
0.1875 0.8125 0
0.21875 0.8125 0
0.21875 0.78125 0
0.25 0.78125 0
0.21875 0.8125 0
0.25 0.8125 0
0.125 0.8125 0
0.15625 0.8125 0
0.125 0.84375 0
0.15625 0.84375 0
0.15625 0.8125 0
[...]
POINT_DATA 4096
SCALARS x_dis double 1
LOOKUP_TABLE default
9.78331e-06 9.78356e-06 -5.00129e-07 -4.9977e-07 9.78356e-06 9.78429e-06 -4.9977e-07 -4.98755e-07 -5.00129e-07 -4.9977e-07 -4.19686e-05 -4.1968e-05 -4.9977e-07 -4.98755e-07 -4.1968e-05 -4.19666e-05 9.78429e-06 9.78542e-06 -4.98755e-07 -4.97205e-07 9.78542e-06 9.78686e-06 -4.97205e-07 -4.95271e-07 -4.98755e-07 -4.97205e-07 -4.19666e-05 -4.19644e-05 -4.97205e-07 -4.95271e-07 -4.19644e-05 -4.19619e-05 -4.19686e-05 -4.1968e-05 -0.000114568 -0.000114566 -4.1968e-05 -4.19666e-05 -0.000114566 -0.000114564 -0.000114568 -0.000114566 -0.000208259 -0.000208256 -0.000114566 -0.000114564 -0.000208256 -0.000208253 -4.19666e-05 -4.19644e-05 -0.000114564 -0.000114561 -4.19644e-05 -4.19619e-05 -0.000114561 -0.000114558 -0.000114564 -0.000114561 -0.000208253 -0.000208249 -0.000114561 -0.000114558 -0.000208249 -0.000208245 9.78686e-06 9.78852e-06 -4.95271e-07 -4.93175e-07 9.78852e-06 9.79029e-06 -4.93175e-07 -4.91094e-07 -4.95271e-07 -4.93175e-07 -4.19619e-05 -4.19592e-05 -4.93175e-07 -4.91094e-07 -4.19592e-05 -4.19567e-05 9.79029e-06 9.7921e-06 -4.91094e-07 -4.88908e-07 9.7921e-06 9.79399e-06 -4.88908e-07 -4.86108e-07 -4.91094e-07 -4.88908e-07 -4.19567e-05 -4.19541e-05 -4.88908e-07 -4.86108e-07 -4.19541e-05 -4.19505e-05 -4.19619e-05 -4.19592e-05 -0.000114558 -0.000114555 -4.19592e-05 -4.19567e-05 -0.000114555 -0.000114552 -0.000114558 -0.000114555 -0.000208245 -0.000208241 -0.000114555 -0.000114552 -0.000208241 -0.000208237 -4.19567e-05 -4.19541e-05 -0.000114552 -0.000114548 -4.19541e-05 -4.19505e-05 -0.000114548 -0.000114544 -0.000114552 -0.000114548 -0.000208237 -0.000208233 -0.000114548 -0.000114544 -0.000208233 -0.000208229 -0.000208259 -0.000208256 -0.000312492 -0.000312488 -0.000208256 -0.000208253 -0.000312488 -0.000312484 -0.000312492 -0.000312488 -0.000420811 -0.000420805 -0.000312488 -0.000312484 -0.000420805 -0.000420799 -0.000208253 -0.000208249 -0.000312484 -0.000312479 -0.000208249 -0.000208245 -0.000312479 -0.000312474 -0.000312484 -0.000312479 -0.000420799 -0.000420793 -0.000312479 -0.000312474 -0.000420793 -0.000420787 -0.000420811 -0.000420805 -0.000530376 -0.000530368 -0.000420805 -0.000420799 -0.000530368 -0.000530361 -0.000530376 -0.000530368 -0.000640254 -0.000640244 -0.000530368 -0.000530361 -0.000640244 -0.000640236 -0.000420799 -0.000420793 -0.000530361 -0.000530354 -0.000420793 -0.000420787 -0.000530354 -0.000530347 -0.000530361 -0.000530354 -0.000640236 -0.000640227 -0.000530354 -0.000530347 -0.000640227 -0.000640219 -0.000208245 -0.000208241 -0.000312474 -0.000312469 -0.000208241 -0.000208237 -0.000312469 -0.000312464 -0.000312474 -0.000312469 -0.000420787 -0.000420781 -0.000312469 -0.000312464 -0.000420781 -0.000420775 -0.000208237 -0.000208233 -0.000312464 -0.000312459 -0.000208233 -0.000208229 -0.000312459 -0.000312455 -0.000312464 -0.000312459 -0.000420775 -0.00042077 -0.000312459 -0.000312455 -0.00042077 -0.000420765 -0.000420787 -0.000420781 -0.000530347 -0.00053034 -0.000420781 -0.000420775 -0.00053034 -0.000530333 -0.000530347 -0.00053034 -0.000640219 -0.000640211 -0.00053034 -0.000530333 -0.000640211 -0.000640204 -0.000420775 -0.00042077 -0.000530333 -0.000530327 -0.00042077 -0.000420765 -0.000530327 -0.000530322 -0.000530333 -0.000530327 -0.000640204 -0.000640198 -0.000530327 -0.000530322 -0.000640198 -0.000640192 9.79399e-06 9.79603e-06 -4.86108e-07 -4.81773e-07 9.79603e-06 9.7981e-06 -4.81773e-07 -4.76024e-07 -4.86108e-07 -4.81773e-07 -4.19505e-05 -4.19448e-05 -4.81773e-07 -4.76024e-07 -4.19448e-05 -4.19374e-05 9.7981e-06 9.79944e-06 -4.76024e-07 -4.77198e-07 9.79944e-06 9.79935e-06 -4.77198e-07 -5.06611e-07 -4.76024e-07 -4.77198e-07 -4.19374e-05 -4.19367e-05 -4.77198e-07 -5.06611e-07 -4.19367e-05 -4.19655e-05 -4.19505e-05 -4.19448e-05 -0.000114544 -0.000114538 -4.19448e-05 -4.19374e-05 -0.000114538 -0.000114531 -0.000114544 -0.000114538 -0.000208229 -0.000208222 -0.000114538 -0.000114531 -0.000208222 -0.000208215 -4.19374e-05 -4.19367e-05 -0.000114531 -0.000114528 -4.19367e-05 -4.19655e-05 -0.000114528 -0.000114541 -0.000114531 -0.000114528 -0.000208215 -0.00020821 -0.000114528 -0.000114541 -0.00020821 -0.000208214 9.79935e-06 9.79938e-06 -5.06611e-07 -5.69099e-07 9.79938e-06 9.80303e-06 -5.69099e-07 -5.739e-07 -5.06611e-07 -5.69099e-07 -4.19655e-05 -4.20344e-05 -5.69099e-07 -5.739e-07 -4.20344e-05 -4.20987e-05 9.80303e-06 9.80612e-06 -5.739e-07 -2.57715e-07 9.80612e-06 9.80246e-06 -2.57715e-07 1.00986e-06 -5.739e-07 -2.57715e-07 -4.20987e-05 -4.20833e-05 -2.57715e-07 1.00986e-06 -4.20833e-05 -4.23142e-05 -4.19655e-05 -4.20344e-05 -0.000114541 -0.000114573 -4.20344e-05 -4.20987e-05 -0.000114573 -0.000114608 -0.000114541 -0.000114573 -0.000208214 -0.000208227 -0.000114573 -0.000114608 -0.000208227 -0.000208232 -4.20987e-05 -4.20833e-05 -0.000114608 -0.000114698 -4.20833e-05 -4.23142e-05 -0.000114698 -0.0001149 -0.000114608 -0.000114698 -0.000208232 -0.000208201 -0.000114698 -0.0001149 -0.000208201 -0.000208122 -0.000208229 -0.000208222 -0.000312455 -0.000312449 -0.000208222 -0.000208215 -0.000312449 -0.000312442 -0.000312455 -0.000312449 -0.000420765 -0.00042076 -0.000312449 -0.000312442 -0.00042076 -0.000420754 -0.000208215 -0.00020821 -0.000312442 -0.000312434 -0.00020821 -0.000208214 -0.000312434 -0.000312431 -0.000312442 -0.000312434 -0.000420754 -0.000420747 -0.000312434 -0.000312431 -0.000420747 -0.000420738 -0.000420765 -0.00042076 -0.000530322 -0.000530317 -0.00042076 -0.000420754 -0.000530317 -0.000530312 -0.000530322 -0.000530317 -0.000640192 -0.000640187 -0.000530317 -0.000530312 -0.000640187 -0.000640182 -0.000420754 -0.000420747 -0.000530312 -0.000530307 -0.000420747 -0.000420738 -0.000530307 -0.000530299 -0.000530312 -0.000530307 -0.000640182 -0.000640177 -0.000530307 -0.000530299 -0.000640177 -0.000640173 -0.000208214 -0.000208227 -0.000312431 -0.000312438 -0.000208227 -0.000208232 -0.000312438 -0.000312448 -0.000312431 -0.000312438 -0.000420738 -0.000420732 -0.000312438 -0.000312448 -0.000420732 -0.000420736 -0.000208232 -0.000208201 -0.000312448 -0.000312434 -0.000208201 -0.000208122 -0.000312434 -0.000312374 -0.000312448 -0.000312434 -0.000420736 -0.000420748 -0.000312434 -0.000312374 -0.000420748 -0.000420763 -0.000420738 -0.000420732 -0.000530299 -0.00053029 -0.000420732 -0.000420736 -0.00053029 -0.000530282 -0.000530299 -0.00053029 -0.000640173 -0.000640168 -0.00053029 -0.000530282 -0.000640168 -0.000640162 -0.000420736 -0.000420748 -0.000530282 -0.000530279 -0.000420748 -0.000420763 -0.000530279 -0.000530285 -0.000530282 -0.000530279 -0.000640162 -0.000640155 -0.000530279 -0.000530285 -0.000640155 -0.000640149 -0.000640254 -0.000640244 -0.000750196 -0.000750185 -0.000640244 -0.000640236 -0.000750185 -0.000750175 -0.000750196 -0.000750185 -0.000860156 -0.000860143 -0.000750185 -0.000750175 -0.000860143 -0.000860131 -0.000640236 -0.000640227 -0.000750175 -0.000750165 -0.000640227 -0.000640219 -0.000750165 -0.000750156 -0.000750175 -0.000750165 -0.000860131 -0.00086012 -0.000750165 -0.000750156 -0.00086012 -0.00086011 -0.000860156 -0.000860143 -0.000970124 -0.000970108 -0.000860143 -0.000860131 -0.000970108 -0.000970094 -0.000970124 -0.000970108 -0.0010801 -0.00108008 -0.000970108 -0.000970094 -0.00108008 -0.00108007 -0.000860131 -0.00086012 -0.000970094 -0.000970082 -0.00086012 -0.00086011 -0.000970082 -0.000970071 -0.000970094 -0.000970082 -0.00108007 -0.00108005 -0.000970082 -0.000970071 -0.00108005 -0.00108004 -0.000640219 -0.000640211 -0.000750156 -0.000750148 -0.000640211 -0.000640204 -0.000750148 -0.00075014 -0.000750156 -0.000750148 -0.00086011 -0.000860101 -0.000750148 -0.00075014 -0.000860101 -0.000860093 -0.000640204 -0.000640198 -0.00075014 -0.000750133 -0.000640198 -0.000640192 -0.000750133 -0.000750127 -0.00075014 -0.000750133 -0.000860093 -0.000860086 -0.000750133 -0.000750127 -0.000860086 -0.00086008 -0.00086011 -0.000860101 -0.000970071 -0.000970062 -0.000860101 -0.000860093 -0.000970062 -0.000970055 -0.000970071 -0.000970062 -0.00108004 -0.00108003 -0.000970062 -0.000970055 -0.00108003 -0.00108002 -0.000860093 -0.000860086 -0.000970055 -0.000970048 -0.000860086 -0.00086008 -0.000970048 -0.000970043 -0.000970055 -0.000970048 -0.00108002 -0.00108002 -0.000970048 -0.000970043 -0.00108002 -0.00108001 -0.0010801 -0.00108008 -0.00119008 -0.00119006 -0.00108008 -0.00108007 -0.00119006 -0.00119004 -0.00119008 -0.00119006 -0.00130006 -0.00130004 -0.00119006 -0.00119004 -0.00130004 -0.00130002 -0.00108007 -0.00108005 -0.00119004 -0.00119003 -0.00108005 -0.00108004 -0.00119003 -0.00119002 -0.00119004 -0.00119003 -0.00130002 -0.00130001 -0.00119003 -0.00119002 -0.00130001 -0.0013 -0.00130006 -0.00130004 -0.00141005 -0.00141002 -0.00130004 -0.00130002 -0.00141002 -0.00141001 -0.00141005 -0.00141002 -0.00152 -0.00152 -0.00141002 -0.00141001 -0.00152 -0.00152 -0.00130002 -0.00130001 -0.00141001 -0.00141 -0.00130001 -0.0013 -0.00141 -0.00141 -0.00141001 -0.00141 -0.00152 -0.00152 -0.00141 -0.00141 -0.00152 -0.00152 -0.00108004 -0.00108003 -0.00119002 -0.00119001 -0.00108003 -0.00108002 -0.00119001 -0.00119 -0.00119002 -0.00119001 -0.0013 -0.0013 -0.00119001 -0.00119 -0.0013 -0.00129999 -0.00108002 -0.00108002 -0.00119 -0.00119 -0.00108002 -0.00108001 -0.00119 -0.00119 -0.00119 -0.00119 -0.00129999 -0.00129999 -0.00119 -0.00119 -0.00129999 -0.00129999 -0.0013 -0.0013 -0.00141 -0.00140999 -0.0013 -0.00129999 -0.00140999 -0.00140999 -0.00141 -0.00140999 -0.00152 -0.00152 -0.00140999 -0.00140999 -0.00152 -0.00152 -0.00129999 -0.00129999 -0.00140999 -0.00140999 -0.00129999 -0.00129999 -0.00140999 -0.00140999 -0.00140999 -0.00140999 -0.00152 -0.00152 -0.00140999 -0.00140999 -0.00152 -0.00152 -0.000640192 -0.000640187 -0.000750127 -0.000750122 -0.000640187 -0.000640182 -0.000750122 -0.000750117 -0.000750127 -0.000750122 -0.00086008 -0.000860075 -0.000750122 -0.000750117 -0.000860075 -0.000860071 -0.000640182 -0.000640177 -0.000750117 -0.000750113 -0.000640177 -0.000640173 -0.000750113 -0.000750109 -0.000750117 -0.000750113 -0.000860071 -0.000860066 -0.000750113 -0.000750109 -0.000860066 -0.000860062 -0.00086008 -0.000860075 -0.000970043 -0.000970038 -0.000860075 -0.000860071 -0.000970038 -0.000970034 -0.000970043 -0.000970038 -0.00108001 -0.00108001 -0.000970038 -0.000970034 -0.00108001 -0.00108001 -0.000860071 -0.000860066 -0.000970034 -0.00097003 -0.000860066 -0.000860062 -0.00097003 -0.000970026 -0.000970034 -0.00097003 -0.00108001 -0.00108 -0.00097003 -0.000970026 -0.00108 -0.00108 -0.000640173 -0.000640168 -0.000750109 -0.000750105 -0.000640168 -0.000640162 -0.000750105 -0.000750102 -0.000750109 -0.000750105 -0.000860062 -0.000860058 -0.000750105 -0.000750102 -0.000860058 -0.000860055 -0.000640162 -0.000640155 -0.000750102 -0.000750099 -0.000640155 -0.000640149 -0.000750099 -0.000750095 -0.000750102 -0.000750099 -0.000860055 -0.000860051 -0.000750099 -0.000750095 -0.000860051 -0.000860048 -0.000860062 -0.000860058 -0.000970026 -0.000970023 -0.000860058 -0.000860055 -0.000970023 -0.000970019 -0.000970026 -0.000970023 -0.00108 -0.00108 -0.000970023 -0.000970019 -0.00108 -0.00107999 -0.000860055 -0.000860051 -0.000970019 -0.000970016 -0.000860051 -0.000860048 -0.000970016 -0.000970012 -0.000970019 -0.000970016 -0.00107999 -0.00107999 -0.000970016 -0.000970012 -0.00107999 -0.00107999 -0.00108001 -0.00108001 -0.00119 -0.00118999 -0.00108001 -0.00108001 -0.00118999 -0.00118999 -0.00119 -0.00118999 -0.00129999 -0.00129998 -0.00118999 -0.00118999 -0.00129998 -0.00129998 -0.00108001 -0.00108 -0.00118999 -0.00118999 -0.00108 -0.00108 -0.00118999 -0.00118998 -0.00118999 -0.00118999 -0.00129998 -0.00129998 -0.00118999 -0.00118998 -0.00129998 -0.00129998 -0.00129999 -0.00129998 -0.00140999 -0.00140999 -0.00129998 -0.00129998 -0.00140999 -0.00140999 -0.00140999 -0.00140999 -0.00152 -0.00152 -0.00140999 -0.00140999 -0.00152 -0.00152 -0.00129998 -0.00129998 -0.00140999 -0.00140999 -0.00129998 -0.00129998 -0.00140999 -0.00140999 -0.00140999 -0.00140999 -0.00152 -0.00152 -0.00140999 -0.00140999 -0.00152 -0.00152 -0.00108 -0.00108 -0.00118998 -0.00118998 -0.00108 -0.00107999 -0.00118998 -0.00118998 -0.00118998 -0.00118998 -0.00129998 -0.00129998 -0.00118998 -0.00118998 -0.00129998 -0.00129998 -0.00107999 -0.00107999 -0.00118998 -0.00118998 -0.00107999 -0.00107999 -0.00118998 -0.00118998 -0.00118998 -0.00118998 -0.00129998 -0.00129997 -0.00118998 -0.00118998 -0.00129997 -0.00129997 -0.00129998 -0.00129998 -0.00140999 -0.00140999 -0.00129998 -0.00129998 -0.00140999 -0.00140998 -0.00140999 -0.00140999 -0.00152 -0.00152 -0.00140999 -0.00140998 -0.00152 -0.00152 -0.00129998 -0.00129997 -0.00140998 -0.00140998 -0.00129997 -0.00129997 -0.00140998 -0.00140998 -0.00140998 -0.00140998 -0.00152 -0.00152 -0.00140998 -0.00140998 -0.00152 -0.00152 9.80246e-06 1.57278e-05 1.00986e-06 1.89171e-06 1.57278e-05 1.89725e-05 1.89171e-06 2.96145e-06 1.00986e-06 1.89171e-06 -4.23142e-05 -4.27481e-05 1.89171e-06 2.96145e-06 -4.27481e-05 -4.31672e-05 1.89725e-05 1.99888e-05 2.96145e-06 3.46741e-06 1.99888e-05 2.00124e-05 3.46741e-06 3.39502e-06 2.96145e-06 3.46741e-06 -4.31672e-05 -4.33108e-05 3.46741e-06 3.39502e-06 -4.33108e-05 -4.34251e-05 -4.23142e-05 -4.27481e-05 -0.0001149 -0.000115187 -4.27481e-05 -4.31672e-05 -0.000115187 -0.00011536 -0.0001149 -0.000115187 -0.000208122 -0.000207995 -0.000115187 -0.00011536 -0.000207995 -0.000207854 -4.31672e-05 -4.33108e-05 -0.00011536 -0.000115397 -4.33108e-05 -4.34251e-05 -0.000115397 -0.000115401 -0.00011536 -0.000115397 -0.000207854 -0.00020776 -0.000115397 -0.000115401 -0.00020776 -0.000207749 2.00124e-05 1.98024e-05 3.39502e-06 3.13531e-06 1.98024e-05 1.96283e-05 3.13531e-06 2.9842e-06 3.39502e-06 3.13531e-06 -4.34251e-05 -4.35578e-05 3.13531e-06 2.9842e-06 -4.35578e-05 -4.36281e-05 1.96283e-05 1.95698e-05 2.9842e-06 2.97177e-06 1.95698e-05 1.95978e-05 2.97177e-06 3.00804e-06 2.9842e-06 2.97177e-06 -4.36281e-05 -4.36275e-05 2.97177e-06 3.00804e-06 -4.36275e-05 -4.36052e-05 -4.34251e-05 -4.35578e-05 -0.000115401 -0.000115438 -4.35578e-05 -4.36281e-05 -0.000115438 -0.000115469 -0.000115401 -0.000115438 -0.000207749 -0.000207781 -0.000115438 -0.000115469 -0.000207781 -0.000207801 -4.36281e-05 -4.36275e-05 -0.000115469 -0.000115471 -4.36275e-05 -4.36052e-05 -0.000115471 -0.000115458 -0.000115469 -0.000115471 -0.000207801 -0.000207797 -0.000115471 -0.000115458 -0.000207797 -0.000207783 -0.000208122 -0.000207995 -0.000312374 -0.000312287 -0.000207995 -0.000207854 -0.000312287 -0.000312222 -0.000312374 -0.000312287 -0.000420763 -0.000420781 -0.000312287 -0.000312222 -0.000420781 -0.000420809 -0.000207854 -0.00020776 -0.000312222 -0.000312216 -0.00020776 -0.000207749 -0.000312216 -0.000312247 -0.000312222 -0.000312216 -0.000420809 -0.000420837 -0.000312216 -0.000312247 -0.000420837 -0.000420851 -0.000420763 -0.000420781 -0.000530285 -0.000530295 -0.000420781 -0.000420809 -0.000530295 -0.000530303 -0.000530285 -0.000530295 -0.000640149 -0.000640142 -0.000530295 -0.000530303 -0.000640142 -0.000640134 -0.000420809 -0.000420837 -0.000530303 -0.000530302 -0.000420837 -0.000420851 -0.000530302 -0.000530291 -0.000530303 -0.000530302 -0.000640134 -0.000640126 -0.000530302 -0.000530291 -0.000640126 -0.000640118 -0.000207749 -0.000207781 -0.000312247 -0.000312271 -0.000207781 -0.000207801 -0.000312271 -0.00031227 -0.000312247 -0.000312271 -0.000420851 -0.000420845 -0.000312271 -0.00031227 -0.000420845 -0.000420831 -0.000207801 -0.000207797 -0.00031227 -0.000312256 -0.000207797 -0.000207783 -0.000312256 -0.000312244 -0.00031227 -0.000312256 -0.000420831 -0.000420819 -0.000312256 -0.000312244 -0.000420819 -0.000420812 -0.000420851 -0.000420845 -0.000530291 -0.000530278 -0.000420845 -0.000420831 -0.000530278 -0.000530269 -0.000530291 -0.000530278 -0.000640118 -0.000640113 -0.000530278 -0.000530269 -0.000640113 -0.00064011 -0.000420831 -0.000420819 -0.000530269 -0.000530264 -0.000420819 -0.000420812 -0.000530264 -0.000530259 -0.000530269 -0.000530264 -0.00064011 -0.000640106 -0.000530264 -0.000530259 -0.000640106 -0.000640101 1.95978e-05 1.96349e-05 3.00804e-06 3.03292e-06 1.96349e-05 1.96468e-05 3.03292e-06 3.03869e-06 3.00804e-06 3.03292e-06 -4.36052e-05 -4.35907e-05 3.03292e-06 3.03869e-06 -4.35907e-05 -4.35856e-05 1.96468e-05 1.96455e-05 3.03869e-06 3.03741e-06 1.96455e-05 1.96452e-05 3.03741e-06 3.03781e-06 3.03869e-06 3.03741e-06 -4.35856e-05 -4.35844e-05 3.03741e-06 3.03781e-06 -4.35844e-05 -4.35832e-05 -4.36052e-05 -4.35907e-05 -0.000115458 -0.000115446 -4.35907e-05 -4.35856e-05 -0.000115446 -0.000115439 -0.000115458 -0.000115446 -0.000207783 -0.000207772 -0.000115446 -0.000115439 -0.000207772 -0.000207768 -4.35856e-05 -4.35844e-05 -0.000115439 -0.000115438 -4.35844e-05 -4.35832e-05 -0.000115438 -0.000115436 -0.000115439 -0.000115438 -0.000207768 -0.000207766 -0.000115438 -0.000115436 -0.000207766 -0.000207763 1.96452e-05 1.96482e-05 3.03781e-06 3.04059e-06 1.96482e-05 1.96515e-05 3.04059e-06 3.04337e-06 3.03781e-06 3.04059e-06 -4.35832e-05 -4.35809e-05 3.04059e-06 3.04337e-06 -4.35809e-05 -4.35783e-05 1.96515e-05 1.96536e-05 3.04337e-06 3.04496e-06 1.96536e-05 1.96542e-05 3.04496e-06 3.04543e-06 3.04337e-06 3.04496e-06 -4.35783e-05 -4.35766e-05 3.04496e-06 3.04543e-06 -4.35766e-05 -4.35759e-05 -4.35832e-05 -4.35809e-05 -0.000115436 -0.000115434 -4.35809e-05 -4.35783e-05 -0.000115434 -0.000115431 -0.000115436 -0.000115434 -0.000207763 -0.00020776 -0.000115434 -0.000115431 -0.00020776 -0.000207756 -4.35783e-05 -4.35766e-05 -0.000115431 -0.000115428 -4.35766e-05 -4.35759e-05 -0.000115428 -0.000115427 -0.000115431 -0.000115428 -0.000207756 -0.000207753 -0.000115428 -0.000115427 -0.000207753 -0.00020775 -0.000207783 -0.000207772 -0.000312244 -0.000312237 -0.000207772 -0.000207768 -0.000312237 -0.000312234 -0.000312244 -0.000312237 -0.000420812 -0.000420808 -0.000312237 -0.000312234 -0.000420808 -0.000420804 -0.000207768 -0.000207766 -0.000312234 -0.000312231 -0.000207766 -0.000207763 -0.000312231 -0.000312227 -0.000312234 -0.000312231 -0.000420804 -0.000420799 -0.000312231 -0.000312227 -0.000420799 -0.000420794 -0.000420812 -0.000420808 -0.000530259 -0.000530255 -0.000420808 -0.000420804 -0.000530255 -0.000530249 -0.000530259 -0.000530255 -0.000640101 -0.000640095 -0.000530255 -0.000530249 -0.000640095 -0.000640089 -0.000420804 -0.000420799 -0.000530249 -0.000530243 -0.000420799 -0.000420794 -0.000530243 -0.000530236 -0.000530249 -0.000530243 -0.000640089 -0.000640082 -0.000530243 -0.000530236 -0.000640082 -0.000640075 -0.000207763 -0.00020776 -0.000312227 -0.000312222 -0.00020776 -0.000207756 -0.000312222 -0.000312217 -0.000312227 -0.000312222 -0.000420794 -0.000420788 -0.000312222 -0.000312217 -0.000420788 -0.000420782 -0.000207756 -0.000207753 -0.000312217 -0.000312213 -0.000207753 -0.00020775 -0.000312213 -0.000312209 -0.000312217 -0.000312213 -0.000420782 -0.000420776 -0.000312213 -0.000312209 -0.000420776 -0.00042077 -0.000420794 -0.000420788 -0.000530236 -0.000530229 -0.000420788 -0.000420782 -0.000530229 -0.000530222 -0.000530236 -0.000530229 -0.000640075 -0.000640066 -0.000530229 -0.000530222 -0.000640066 -0.000640058 -0.000420782 -0.000420776 -0.000530222 -0.000530215 -0.000420776 -0.00042077 -0.000530215 -0.000530207 -0.000530222 -0.000530215 -0.000640058 -0.000640049 -0.000530215 -0.000530207 -0.000640049 -0.00064004 -0.000640149 -0.000640142 -0.000750095 -0.000750091 -0.000640142 -0.000640134 -0.000750091 -0.000750088 -0.000750095 -0.000750091 -0.000860048 -0.000860045 -0.000750091 -0.000750088 -0.000860045 -0.000860041 -0.000640134 -0.000640126 -0.000750088 -0.000750084 -0.000640126 -0.000640118 -0.000750084 -0.000750081 -0.000750088 -0.000750084 -0.000860041 -0.000860038 -0.000750084 -0.000750081 -0.000860038 -0.000860034 -0.000860048 -0.000860045 -0.000970012 -0.000970008 -0.000860045 -0.000860041 -0.000970008 -0.000970004 -0.000970012 -0.000970008 -0.00107999 -0.00107999 -0.000970008 -0.000970004 -0.00107999 -0.00107998 -0.000860041 -0.000860038 -0.000970004 -0.000970001 -0.000860038 -0.000860034 -0.000970001 