# vtk DataFile Version 3.0
#This file was generated by the deal.II library on 2022/11/16 at 21:20:41
ASCII
DATASET UNSTRUCTURED_GRID

POINTS 4096 double
0 0.5 0
0.03125 0.5 0
0 0.53125 0
0.03125 0.53125 0
0.03125 0.5 0
0.0625 0.5 0
0.03125 0.53125 0
0.0625 0.53125 0
0 0.53125 0
0.03125 0.53125 0
0 0.5625 0
0.03125 0.5625 0
0.03125 0.53125 0
0.0625 0.53125 0
0.03125 0.5625 0
0.0625 0.5625 0
0.0625 0.5 0
0.09375 0.5 0
0.0625 0.53125 0
0.09375 0.53125 0
0.09375 0.5 0
0.125 0.5 0
0.09375 0.53125 0
0.125 0.53125 0
0.0625 0.53125 0
0.09375 0.53125 0
0.0625 0.5625 0
0.09375 0.5625 0
0.09375 0.53125 0
0.125 0.53125 0
0.09375 0.5625 0
0.125 0.5625 0
0 0.5625 0
0.03125 0.5625 0
0 0.59375 0
0.03125 0.59375 0
0.03125 0.5625 0
0.0625 0.5625 0
0.03125 0.59375 0
0.0625 0.59375 0
0 0.59375 0
0.03125 0.59375 0
0 0.625 0
0.03125 0.625 0
0.03125 0.59375 0
0.0625 0.59375 0
0.03125 0.625 0
0.0625 0.625 0
0.0625 0.5625 0
0.09375 0.5625 0
0.0625 0.59375 0
0.09375 0.59375 0
0.09375 0.5625 0
0.125 0.5625 0
0.09375 0.59375 0
0.125 0.59375 0
0.0625 0.59375 0
0.09375 0.59375 0
0.0625 0.625 0
0.09375 0.625 0
0.09375 0.59375 0
0.125 0.59375 0
0.09375 0.625 0
0.125 0.625 0
0.125 0.5 0
0.15625 0.5 0
0.125 0.53125 0
0.15625 0.53125 0
0.15625 0.5 0
0.1875 0.5 0
0.15625 0.53125 0
0.1875 0.53125 0
0.125 0.53125 0
0.15625 0.53125 0
0.125 0.5625 0
0.15625 0.5625 0
0.15625 0.53125 0
0.1875 0.53125 0
0.15625 0.5625 0
0.1875 0.5625 0
0.1875 0.5 0
0.21875 0.5 0
0.1875 0.53125 0
0.21875 0.53125 0
0.21875 0.5 0
0.25 0.5 0
0.21875 0.53125 0
0.25 0.53125 0
0.1875 0.53125 0
0.21875 0.53125 0
0.1875 0.5625 0
0.21875 0.5625 0
0.21875 0.53125 0
0.25 0.53125 0
0.21875 0.5625 0
0.25 0.5625 0
0.125 0.5625 0
0.15625 0.5625 0
0.125 0.59375 0
0.15625 0.59375 0
0.15625 0.5625 0
0.1875 0.5625 0
0.15625 0.59375 0
0.1875 0.59375 0
0.125 0.59375 0
0.15625 0.59375 0
0.125 0.625 0
0.15625 0.625 0
0.15625 0.59375 0
0.1875 0.59375 0
0.15625 0.625 0
0.1875 0.625 0
0.1875 0.5625 0
0.21875 0.5625 0
0.1875 0.59375 0
0.21875 0.59375 0
0.21875 0.5625 0
0.25 0.5625 0
0.21875 0.59375 0
0.25 0.59375 0
0.1875 0.59375 0
0.21875 0.59375 0
0.1875 0.625 0
0.21875 0.625 0
0.21875 0.59375 0
0.25 0.59375 0
0.21875 0.625 0
0.25 0.625 0
0 0.625 0
0.03125 0.625 0
0 0.65625 0
0.03125 0.65625 0
0.03125 0.625 0
0.0625 0.625 0
0.03125 0.65625 0
0.0625 0.65625 0
0 0.65625 0
0.03125 0.65625 0
0 0.6875 0
0.03125 0.6875 0
0.03125 0.65625 0
0.0625 0.65625 0
0.03125 0.6875 0
0.0625 0.6875 0
0.0625 0.625 0
0.09375 0.625 0
0.0625 0.65625 0
0.09375 0.65625 0
0.09375 0.625 0
0.125 0.625 0
0.09375 0.65625 0
0.125 0.65625 0
0.0625 0.65625 0
0.09375 0.65625 0
0.0625 0.6875 0
0.09375 0.6875 0
0.09375 0.65625 0
0.125 0.65625 0
0.09375 0.6875 0
0.125 0.6875 0
0 0.6875 0
0.03125 0.6875 0
0 0.71875 0
0.03125 0.71875 0
0.03125 0.6875 0
0.0625 0.6875 0
0.03125 0.71875 0
0.0625 0.71875 0
0 0.71875 0
0.03125 0.71875 0
0 0.75 0
0.03125 0.75 0
0.03125 0.71875 0
0.0625 0.71875 0
0.03125 0.75 0
0.0625 0.75 0
0.0625 0.6875 0
0.09375 0.6875 0
0.0625 0.71875 0
0.09375 0.71875 0
0.09375 0.6875 0
0.125 0.6875 0
0.09375 0.71875 0
0.125 0.71875 0
0.0625 0.71875 0
0.09375 0.71875 0
0.0625 0.75 0
0.09375 0.75 0
0.09375 0.71875 0
0.125 0.71875 0
0.09375 0.75 0
0.125 0.75 0
0.125 0.625 0
0.15625 0.625 0
0.125 0.65625 0
0.15625 0.65625 0
0.15625 0.625 0
0.1875 0.625 0
0.15625 0.65625 0
0.1875 0.65625 0
0.125 0.65625 0
0.15625 0.65625 0
0.125 0.6875 0
0.15625 0.6875 0
0.15625 0.65625 0
0.1875 0.65625 0
0.15625 0.6875 0
0.1875 0.6875 0
0.1875 0.625 0
0.21875 0.625 0
0.1875 0.65625 0
0.21875 0.65625 0
0.21875 0.625 0
0.25 0.625 0
0.21875 0.65625 0
0.25 0.65625 0
0.1875 0.65625 0
0.21875 0.65625 0
0.1875 0.6875 0
0.21875 0.6875 0
0.21875 0.65625 0
0.25 0.65625 0
0.21875 0.6875 0
0.25 0.6875 0
0.125 0.6875 0
0.15625 0.6875 0
0.125 0.71875 0
0.15625 0.71875 0
0.15625 0.6875 0
0.1875 0.6875 0
0.15625 0.71875 0
0.1875 0.71875 0
0.125 0.71875 0
0.15625 0.71875 0
0.125 0.75 0
0.15625 0.75 0
0.15625 0.71875 0
0.1875 0.71875 0
0.15625 0.75 0
0.1875 0.75 0
0.1875 0.6875 0
0.21875 0.6875 0
0.1875 0.71875 0
0.21875 0.71875 0
0.21875 0.6875 0
0.25 0.6875 0
0.21875 0.71875 0
0.25 0.71875 0
0.1875 0.71875 0
0.21875 0.71875 0
0.1875 0.75 0
0.21875 0.75 0
0.21875 0.71875 0
0.25 0.71875 0
0.21875 0.75 0
0.25 0.75 0
0.25 0.5 0
0.28125 0.5 0
0.25 0.53125 0
0.28125 0.53125 0
0.28125 0.5 0
0.3125 0.5 0
0.28125 0.53125 0
0.3125 0.53125 0
0.25 0.53125 0
0.28125 0.53125 0
0.25 0.5625 0
0.28125 0.5625 0
0.28125 0.53125 0
0.3125 0.53125 0
0.28125 0.5625 0
0.3125 0.5625 0
0.3125 0.5 0
0.34375 0.5 0
0.3125 0.53125 0
0.34375 0.53125 0
0.34375 0.5 0
0.375 0.5 0
0.34375 0.53125 0
0.375 0.53125 0
0.3125 0.53125 0
0.34375 0.53125 0
0.3125 0.5625 0
0.34375 0.5625 0
0.34375 0.53125 0
0.375 0.53125 0
0.34375 0.5625 0
0.375 0.5625 0
0.25 0.5625 0
0.28125 0.5625 0
0.25 0.59375 0
0.28125 0.59375 0
0.28125 0.5625 0
0.3125 0.5625 0
0.28125 0.59375 0
0.3125 0.59375 0
0.25 0.59375 0
0.28125 0.59375 0
0.25 0.625 0
0.28125 0.625 0
0.28125 0.59375 0
0.3125 0.59375 0
0.28125 0.625 0
0.3125 0.625 0
0.3125 0.5625 0
0.34375 0.5625 0
0.3125 0.59375 0
0.34375 0.59375 0
0.34375 0.5625 0
0.375 0.5625 0
0.34375 0.59375 0
0.375 0.59375 0
0.3125 0.59375 0
0.34375 0.59375 0
0.3125 0.625 0
0.34375 0.625 0
0.34375 0.59375 0
0.375 0.59375 0
0.34375 0.625 0
0.375 0.625 0
0.375 0.5 0
0.40625 0.5 0
0.375 0.53125 0
0.40625 0.53125 0
0.40625 0.5 0
0.4375 0.5 0
0.40625 0.53125 0
0.4375 0.53125 0
0.375 0.53125 0
0.40625 0.53125 0
0.375 0.5625 0
0.40625 0.5625 0
0.40625 0.53125 0
0.4375 0.53125 0
0.40625 0.5625 0
0.4375 0.5625 0
0.4375 0.5 0
0.46875 0.5 0
0.4375 0.53125 0
0.46875 0.53125 0
0.46875 0.5 0
0.5 0.5 0
0.46875 0.53125 0
0.5 0.53125 0
0.4375 0.53125 0
0.46875 0.53125 0
0.4375 0.5625 0
0.46875 0.5625 0
0.46875 0.53125 0
0.5 0.53125 0
0.46875 0.5625 0
0.5 0.5625 0
0.375 0.5625 0
0.40625 0.5625 0
0.375 0.59375 0
0.40625 0.59375 0
0.40625 0.5625 0
0.4375 0.5625 0
0.40625 0.59375 0
0.4375 0.59375 0
0.375 0.59375 0
0.40625 0.59375 0
0.375 0.625 0
0.40625 0.625 0
0.40625 0.59375 0
0.4375 0.59375 0
0.40625 0.625 0
0.4375 0.625 0
0.4375 0.5625 0
0.46875 0.5625 0
0.4375 0.59375 0
0.46875 0.59375 0
0.46875 0.5625 0
0.5 0.5625 0
0.46875 0.59375 0
0.5 0.59375 0
0.4375 0.59375 0
0.46875 0.59375 0
0.4375 0.625 0
0.46875 0.625 0
0.46875 0.59375 0
0.5 0.59375 0
0.46875 0.625 0
0.5 0.625 0
0.25 0.625 0
0.28125 0.625 0
0.25 0.65625 0
0.28125 0.65625 0
0.28125 0.625 0
0.3125 0.625 0
0.28125 0.65625 0
0.3125 0.65625 0
0.25 0.65625 0
0.28125 0.65625 0
0.25 0.6875 0
0.28125 0.6875 0
0.28125 0.65625 0
0.3125 0.65625 0
0.28125 0.6875 0
0.3125 0.6875 0
0.3125 0.625 0
0.34375 0.625 0
0.3125 0.65625 0
0.34375 0.65625 0
0.34375 0.625 0
0.375 0.625 0
0.34375 0.65625 0
0.375 0.65625 0
0.3125 0.65625 0
0.34375 0.65625 0
0.3125 0.6875 0
0.34375 0.6875 0
0.34375 0.65625 0
0.375 0.65625 0
0.34375 0.6875 0
0.375 0.6875 0
0.25 0.6875 0
0.28125 0.6875 0
0.25 0.71875 0
0.28125 0.71875 0
0.28125 0.6875 0
0.3125 0.6875 0
0.28125 0.71875 0
0.3125 0.71875 0
0.25 0.71875 0
0.28125 0.71875 0
0.25 0.75 0
0.28125 0.75 0
0.28125 0.71875 0
0.3125 0.71875 0
0.28125 0.75 0
0.3125 0.75 0
0.3125 0.6875 0
0.34375 0.6875 0
0.3125 0.71875 0
0.34375 0.71875 0
0.34375 0.6875 0
0.375 0.6875 0
0.34375 0.71875 0
0.375 0.71875 0
0.3125 0.71875 0
0.34375 0.71875 0
0.3125 0.75 0
0.34375 0.75 0
0.34375 0.71875 0
0.375 0.71875 0
0.34375 0.75 0
0.375 0.75 0
0.375 0.625 0
0.40625 0.625 0
0.375 0.65625 0
0.40625 0.65625 0
0.40625 0.625 0
0.4375 0.625 0
0.40625 0.65625 0
0.4375 0.65625 0
0.375 0.65625 0
0.40625 0.65625 0
0.375 0.6875 0
0.40625 0.6875 0
0.40625 0.65625 0
0.4375 0.65625 0
0.40625 0.6875 0
0.4375 0.6875 0
0.4375 0.625 0
0.46875 0.625 0
0.4375 0.65625 0
0.46875 0.65625 0
0.46875 0.625 0
0.5 0.625 0
0.46875 0.65625 0
0.5 0.65625 0
0.4375 0.65625 0
0.46875 0.65625 0
0.4375 0.6875 0
0.46875 0.6875 0
0.46875 0.65625 0
0.5 0.65625 0
0.46875 0.6875 0
0.5 0.6875 0
0.375 0.6875 0
0.40625 0.6875 0
0.375 0.71875 0
0.40625 0.71875 0
0.40625 0.6875 0
0.4375 0.6875 0
0.40625 0.71875 0
0.4375 0.71875 0
0.375 0.71875 0
0.40625 0.71875 0
0.375 0.75 0
0.40625 0.75 0
0.40625 0.71875 0
0.4375 0.71875 0
0.40625 0.75 0
0.4375 0.75 0
0.4375 0.6875 0
0.46875 0.6875 0
0.4375 0.71875 0
0.46875 0.71875 0
0.46875 0.6875 0
0.5 0.6875 0
0.46875 0.71875 0
0.5 0.71875 0
0.4375 0.71875 0
0.46875 0.71875 0
0.4375 0.75 0
0.46875 0.75 0
0.46875 0.71875 0
0.5 0.71875 0
0.46875 0.75 0
0.5 0.75 0
0 0.75 0
0.03125 0.75 0
0 0.78125 0
0.03125 0.78125 0
0.03125 0.75 0
0.0625 0.75 0
0.03125 0.78125 0
0.0625 0.78125 0
0 0.78125 0
0.03125 0.78125 0
0 0.8125 0
0.03125 0.8125 0
0.03125 0.78125 0
0.0625 0.78125 0
0.03125 0.8125 0
0.0625 0.8125 0
0.0625 0.75 0
0.09375 0.75 0
0.0625 0.78125 0
0.09375 0.78125 0
0.09375 0.75 0
0.125 0.75 0
0.09375 0.78125 0
0.125 0.78125 0
0.0625 0.78125 0
0.09375 0.78125 0
0.0625 0.8125 0
0.09375 0.8125 0
0.09375 0.78125 0
0.125 0.78125 0
0.09375 0.8125 0
0.125 0.8125 0
0 0.8125 0
0.03125 0.8125 0
0 0.84375 0
0.03125 0.84375 0
0.03125 0.8125 0
0.0625 0.8125 0
0.03125 0.84375 0
0.0625 0.84375 0
0 0.84375 0
0.03125 0.84375 0
0 0.875 0
0.03125 0.875 0
0.03125 0.84375 0
0.0625 0.84375 0
0.03125 0.875 0
0.0625 0.875 0
0.0625 0.8125 0
0.09375 0.8125 0
0.0625 0.84375 0
0.09375 0.84375 0
0.09375 0.8125 0
0.125 0.8125 0
0.09375 0.84375 0
0.125 0.84375 0
0.0625 0.84375 0
0.09375 0.84375 0
0.0625 0.875 0
0.09375 0.875 0
0.09375 0.84375 0
0.125 0.84375 0
0.09375 0.875 0
0.125 0.875 0
0.125 0.75 0
0.15625 0.75 0
0.125 0.78125 0
0.15625 0.78125 0
0.15625 0.75 0
0.1875 0.75 0
0.15625 0.78125 0
0.1875 0.78125 0
0.125 0.78125 0
0.15625 0.78125 0
0.125 0.8125 0
0.15625 0.8125 0
0.15625 0.78125 0
0.1875 0.78125 0
0.15625 0.8125 0
0.1875 0.8125 0
0.1875 0.75 0
0.21875 0.75 0
0.1875 0.78125 0
0.21875 0.78125 0
0.21875 0.75 0
0.25 0.75 0
0.21875 0.78125 0
0.25 0.78125 0
0.1875 0.78125 0
0.21875 0.78125 0
0.1875 0.8125 0
0.21875 0.8125 0
0.21875 0.78125 0
0.25 0.78125 0
0.21875 0.8125 0
0.25 0.8125 0
0.125 0.8125 0
0.15625 0.8125 0
0.125 0.84375 0
0.15625 0.84375 0
0.15625 0.8125 0
[...]
POINT_DATA 4096
SCALARS x_dis double 1
LOOKUP_TABLE default
5.4043e-10 5.4043e-10 -3.37784e-10 -3.37788e-10 5.4043e-10 5.40428e-10 -3.37788e-10 -3.378e-10 -3.37784e-10 -3.37788e-10 -3.56862e-09 -3.56861e-09 -3.37788e-10 -3.378e-10 -3.56861e-09 -3.56857e-09 5.40428e-10 5.40427e-10 -3.378e-10 -3.37812e-10 5.40427e-10 5.40425e-10 -3.37812e-10 -3.3782e-10 -3.378e-10 -3.37812e-10 -3.56857e-09 -3.56854e-09 -3.37812e-10 -3.3782e-10 -3.56854e-09 -3.56851e-09 -3.56862e-09 -3.56861e-09 1.75865e-08 1.75866e-08 -3.56861e-09 -3.56857e-09 1.75866e-08 1.75867e-08 1.75865e-08 1.75866e-08 -3.55186e-08 -3.55187e-08 1.75866e-08 1.75867e-08 -3.55187e-08 -3.55192e-08 -3.56857e-09 -3.56854e-09 1.75867e-08 1.75868e-08 -3.56854e-09 -3.56851e-09 1.75868e-08 1.75869e-08 1.75867e-08 1.75868e-08 -3.55192e-08 -3.55197e-08 1.75868e-08 1.75869e-08 -3.55197e-08 -3.552e-08 5.40425e-10 5.40424e-10 -3.3782e-10 -3.37824e-10 5.40424e-10 5.40423e-10 -3.37824e-10 -3.37827e-10 -3.3782e-10 -3.37824e-10 -3.56851e-09 -3.5685e-09 -3.37824e-10 -3.37827e-10 -3.5685e-09 -3.56848e-09 5.40423e-10 5.40423e-10 -3.37827e-10 -3.37828e-10 5.40423e-10 5.40423e-10 -3.37828e-10 -3.37828e-10 -3.37827e-10 -3.37828e-10 -3.56848e-09 -3.56848e-09 -3.37828e-10 -3.37828e-10 -3.56848e-09 -3.56848e-09 -3.56851e-09 -3.5685e-09 1.75869e-08 1.7587e-08 -3.5685e-09 -3.56848e-09 1.7587e-08 1.7587e-08 1.75869e-08 1.7587e-08 -3.552e-08 -3.55202e-08 1.7587e-08 1.7587e-08 -3.55202e-08 -3.55203e-08 -3.56848e-09 -3.56848e-09 1.7587e-08 1.7587e-08 -3.56848e-09 -3.56848e-09 1.7587e-08 1.7587e-08 1.7587e-08 1.7587e-08 -3.55203e-08 -3.55204e-08 1.7587e-08 1.7587e-08 -3.55204e-08 -3.55204e-08 -3.55186e-08 -3.55187e-08 -2.55094e-08 -2.551e-08 -3.55187e-08 -3.55192e-08 -2.551e-08 -2.55116e-08 -2.55094e-08 -2.551e-08 3.69973e-07 3.69973e-07 -2.551e-08 -2.55116e-08 3.69973e-07 3.69975e-07 -3.55192e-08 -3.55197e-08 -2.55116e-08 -2.55137e-08 -3.55197e-08 -3.552e-08 -2.55137e-08 -2.55156e-08 -2.55116e-08 -2.55137e-08 3.69975e-07 3.69978e-07 -2.55137e-08 -2.55156e-08 3.69978e-07 3.6998e-07 3.69973e-07 3.69973e-07 -7.86426e-07 -7.86417e-07 3.69973e-07 3.69975e-07 -7.86417e-07 -7.86392e-07 -7.86426e-07 -7.86417e-07 -1.10568e-06 -1.10564e-06 -7.86417e-07 -7.86392e-07 -1.10564e-06 -1.10553e-06 3.69975e-07 3.69978e-07 -7.86392e-07 -7.8636e-07 3.69978e-07 3.6998e-07 -7.8636e-07 -7.8633e-07 -7.86392e-07 -7.8636e-07 -1.10553e-06 -1.10541e-06 -7.8636e-07 -7.8633e-07 -1.10541e-06 -1.10529e-06 -3.552e-08 -3.55202e-08 -2.55156e-08 -2.55167e-08 -3.55202e-08 -3.55203e-08 -2.55167e-08 -2.55172e-08 -2.55156e-08 -2.55167e-08 3.6998e-07 3.6998e-07 -2.55167e-08 -2.55172e-08 3.6998e-07 3.6998e-07 -3.55203e-08 -3.55204e-08 -2.55172e-08 -2.55174e-08 -3.55204e-08 -3.55204e-08 -2.55174e-08 -2.55175e-08 -2.55172e-08 -2.55174e-08 3.6998e-07 3.69981e-07 -2.55174e-08 -2.55175e-08 3.69981e-07 3.69981e-07 3.6998e-07 3.6998e-07 -7.8633e-07 -7.86309e-07 3.6998e-07 3.6998e-07 -7.86309e-07 -7.86298e-07 -7.8633e-07 -7.86309e-07 -1.10529e-06 -1.10521e-06 -7.86309e-07 -7.86298e-07 -1.10521e-06 -1.10516e-06 3.6998e-07 3.69981e-07 -7.86298e-07 -7.86294e-07 3.69981e-07 3.69981e-07 -7.86294e-07 -7.86293e-07 -7.86298e-07 -7.86294e-07 -1.10516e-06 -1.10514e-06 -7.86294e-07 -7.86293e-07 -1.10514e-06 -1.10513e-06 5.40423e-10 5.40423e-10 -3.37828e-10 -3.3783e-10 5.40423e-10 5.40423e-10 -3.3783e-10 -3.37805e-10 -3.37828e-10 -3.3783e-10 -3.56848e-09 -3.56848e-09 -3.3783e-10 -3.37805e-10 -3.56848e-09 -3.56846e-09 5.40423e-10 5.40425e-10 -3.37805e-10 -3.37842e-10 5.40425e-10 5.40415e-10 -3.37842e-10 -3.38062e-10 -3.37805e-10 -3.37842e-10 -3.56846e-09 -3.56851e-09 -3.37842e-10 -3.38062e-10 -3.56851e-09 -3.56857e-09 -3.56848e-09 -3.56848e-09 1.7587e-08 1.7587e-08 -3.56848e-09 -3.56846e-09 1.7587e-08 1.7587e-08 1.7587e-08 1.7587e-08 -3.55204e-08 -3.55204e-08 1.7587e-08 1.7587e-08 -3.55204e-08 -3.55204e-08 -3.56846e-09 -3.56851e-09 1.7587e-08 1.7587e-08 -3.56851e-09 -3.56857e-09 1.7587e-08 1.75869e-08 1.7587e-08 1.7587e-08 -3.55204e-08 -3.55204e-08 1.7587e-08 1.75869e-08 -3.55204e-08 -3.55204e-08 5.40415e-10 5.40423e-10 -3.38062e-10 -3.37312e-10 5.40423e-10 5.40463e-10 -3.37312e-10 -3.35815e-10 -3.38062e-10 -3.37312e-10 -3.56857e-09 -3.56811e-09 -3.37312e-10 -3.35815e-10 -3.56811e-09 -3.56885e-09 5.40463e-10 5.40354e-10 -3.35815e-10 -3.44372e-10 5.40354e-10 5.40271e-10 -3.44372e-10 -3.64421e-10 -3.35815e-10 -3.44372e-10 -3.56885e-09 -3.56728e-09 -3.44372e-10 -3.64421e-10 -3.56728e-09 -3.56524e-09 -3.56857e-09 -3.56811e-09 1.75869e-08 1.75871e-08 -3.56811e-09 -3.56885e-09 1.75871e-08 1.75876e-08 1.75869e-08 1.75871e-08 -3.55204e-08 -3.55205e-08 1.75871e-08 1.75876e-08 -3.55205e-08 -3.55203e-08 -3.56885e-09 -3.56728e-09 1.75876e-08 1.75859e-08 -3.56728e-09 -3.56524e-09 1.75859e-08 1.75884e-08 1.75876e-08 1.75859e-08 -3.55203e-08 -3.55192e-08 1.75859e-08 1.75884e-08 -3.55192e-08 -3.55212e-08 -3.55204e-08 -3.55204e-08 -2.55175e-08 -2.55175e-08 -3.55204e-08 -3.55204e-08 -2.55175e-08 -2.55175e-08 -2.55175e-08 -2.55175e-08 3.69981e-07 3.69981e-07 -2.55175e-08 -2.55175e-08 3.69981e-07 3.69981e-07 -3.55204e-08 -3.55204e-08 -2.55175e-08 -2.55175e-08 -3.55204e-08 -3.55204e-08 -2.55175e-08 -2.55174e-08 -2.55175e-08 -2.55175e-08 3.69981e-07 3.69981e-07 -2.55175e-08 -2.55174e-08 3.69981e-07 3.69981e-07 3.69981e-07 3.69981e-07 -7.86293e-07 -7.86292e-07 3.69981e-07 3.69981e-07 -7.86292e-07 -7.86292e-07 -7.86293e-07 -7.86292e-07 -1.10513e-06 -1.10513e-06 -7.86292e-07 -7.86292e-07 -1.10513e-06 -1.10513e-06 3.69981e-07 3.69981e-07 -7.86292e-07 -7.86292e-07 3.69981e-07 3.69981e-07 -7.86292e-07 -7.86292e-07 -7.86292e-07 -7.86292e-07 -1.10513e-06 -1.10513e-06 -7.86292e-07 -7.86292e-07 -1.10513e-06 -1.10513e-06 -3.55204e-08 -3.55205e-08 -2.55174e-08 -2.55174e-08 -3.55205e-08 -3.55203e-08 -2.55174e-08 -2.55176e-08 -2.55174e-08 -2.55174e-08 3.69981e-07 3.69981e-07 -2.55174e-08 -2.55176e-08 3.69981e-07 3.69981e-07 -3.55203e-08 -3.55192e-08 -2.55176e-08 -2.55178e-08 -3.55192e-08 -3.55212e-08 -2.55178e-08 -2.5517e-08 -2.55176e-08 -2.55178e-08 3.69981e-07 3.69981e-07 -2.55178e-08 -2.5517e-08 3.69981e-07 3.6998e-07 3.69981e-07 3.69981e-07 -7.86292e-07 -7.86292e-07 3.69981e-07 3.69981e-07 -7.86292e-07 -7.86292e-07 -7.86292e-07 -7.86292e-07 -1.10513e-06 -1.10513e-06 -7.86292e-07 -7.86292e-07 -1.10513e-06 -1.10513e-06 3.69981e-07 3.69981e-07 -7.86292e-07 -7.86292e-07 3.69981e-07 3.6998e-07 -7.86292e-07 -7.86292e-07 -7.86292e-07 -7.86292e-07 -1.10513e-06 -1.10513e-06 -7.86292e-07 -7.86292e-07 -1.10513e-06 -1.10513e-06 -1.10568e-06 -1.10564e-06 7.17615e-06 7.17628e-06 -1.10564e-06 -1.10553e-06 7.17628e-06 7.17658e-06 7.17615e-06 7.17628e-06 3.78978e-06 3.79006e-06 7.17628e-06 7.17658e-06 3.79006e-06 3.79077e-06 -1.10553e-06 -1.10541e-06 7.17658e-06 7.17695e-06 -1.10541e-06 -1.10529e-06 7.17695e-06 7.17726e-06 7.17658e-06 7.17695e-06 3.79077e-06 3.79158e-06 7.17695e-06 7.17726e-06 3.79158e-06 3.79227e-06 3.78978e-06 3.79006e-06 -4.59937e-05 -4.59929e-05 3.79006e-06 3.79077e-06 -4.59929e-05 -4.59914e-05 -4.59937e-05 -4.59929e-05 -0.000135397 -0.000135394 -4.59929e-05 -4.59914e-05 -0.000135394 -0.000135391 3.79077e-06 3.79158e-06 -4.59914e-05 -4.599e-05 3.79158e-06 3.79227e-06 -4.599e-05 -4.59888e-05 -4.59914e-05 -4.599e-05 -0.000135391 -0.000135389 -4.599e-05 -4.59888e-05 -0.000135389 -0.000135387 -1.10529e-06 -1.10521e-06 7.17726e-06 7.17749e-06 -1.10521e-06 -1.10516e-06 7.17749e-06 7.17762e-06 7.17726e-06 7.17749e-06 3.79227e-06 3.79274e-06 7.17749e-06 7.17762e-06 3.79274e-06 3.79302e-06 -1.10516e-06 -1.10514e-06 7.17762e-06 7.17769e-06 -1.10514e-06 -1.10513e-06 7.17769e-06 7.17771e-06 7.17762e-06 7.17769e-06 3.79302e-06 3.79316e-06 7.17769e-06 7.17771e-06 3.79316e-06 3.79322e-06 3.79227e-06 3.79274e-06 -4.59888e-05 -4.59879e-05 3.79274e-06 3.79302e-06 -4.59879e-05 -4.59874e-05 -4.59888e-05 -4.59879e-05 -0.000135387 -0.000135386 -4.59879e-05 -4.59874e-05 -0.000135386 -0.000135385 3.79302e-06 3.79316e-06 -4.59874e-05 -4.59872e-05 3.79316e-06 3.79322e-06 -4.59872e-05 -4.59871e-05 -4.59874e-05 -4.59872e-05 -0.000135385 -0.000135385 -4.59872e-05 -4.59871e-05 -0.000135385 -0.000135385 -0.000135397 -0.000135394 -0.00024067 -0.000240665 -0.000135394 -0.000135391 -0.000240665 -0.000240661 -0.00024067 -0.000240665 -0.000350172 -0.000350165 -0.000240665 -0.000240661 -0.000350165 -0.000350159 -0.000135391 -0.000135389 -0.000240661 -0.000240658 -0.000135389 -0.000135387 -0.000240658 -0.000240655 -0.000240661 -0.000240658 -0.000350159 -0.000350155 -0.000240658 -0.000240655 -0.000350155 -0.000350153 -0.000350172 -0.000350165 -0.000460017 -0.000460007 -0.000350165 -0.000350159 -0.000460007 -0.000460002 -0.000460017 -0.000460007 -0.00057 -0.00057 -0.000460007 -0.000460002 -0.00057 -0.00057 -0.000350159 -0.000350155 -0.000460002 -0.00046 -0.000350155 -0.000350153 -0.00046 -0.000459998 -0.000460002 -0.00046 -0.00057 -0.00057 -0.00046 -0.000459998 -0.00057 -0.00057 -0.000135387 -0.000135386 -0.000240655 -0.000240654 -0.000135386 -0.000135385 -0.000240654 -0.000240653 -0.000240655 -0.000240654 -0.000350153 -0.000350152 -0.000240654 -0.000240653 -0.000350152 -0.000350151 -0.000135385 -0.000135385 -0.000240653 -0.000240653 -0.000135385 -0.000135385 -0.000240653 -0.000240652 -0.000240653 -0.000240653 -0.000350151 -0.000350151 -0.000240653 -0.000240652 -0.000350151 -0.00035015 -0.000350153 -0.000350152 -0.000459998 -0.000459998 -0.000350152 -0.000350151 -0.000459998 -0.000459997 -0.000459998 -0.000459998 -0.00057 -0.00057 -0.000459998 -0.000459997 -0.00057 -0.00057 -0.000350151 -0.000350151 -0.000459997 -0.000459997 -0.000350151 -0.00035015 -0.000459997 -0.000459997 -0.000459997 -0.000459997 -0.00057 -0.00057 -0.000459997 -0.000459997 -0.00057 -0.00057 -1.10513e-06 -1.10513e-06 7.17771e-06 7.17771e-06 -1.10513e-06 -1.10513e-06 7.17771e-06 7.17772e-06 7.17771e-06 7.17771e-06 3.79322e-06 3.79323e-06 7.17771e-06 7.17772e-06 3.79323e-06 3.79323e-06 -1.10513e-06 -1.10513e-06 7.17772e-06 7.17771e-06 -1.10513e-06 -1.10513e-06 7.17771e-06 7.17771e-06 7.17772e-06 7.17771e-06 3.79323e-06 3.79323e-06 7.17771e-06 7.17771e-06 3.79323e-06 3.79323e-06 3.79322e-06 3.79323e-06 -4.59871e-05 -4.5987e-05 3.79323e-06 3.79323e-06 -4.5987e-05 -4.5987e-05 -4.59871e-05 -4.5987e-05 -0.000135385 -0.000135385 -4.5987e-05 -4.5987e-05 -0.000135385 -0.000135385 3.79323e-06 3.79323e-06 -4.5987e-05 -4.5987e-05 3.79323e-06 3.79323e-06 -4.5987e-05 -4.5987e-05 -4.5987e-05 -4.5987e-05 -0.000135385 -0.000135385 -4.5987e-05 -4.5987e-05 -0.000135385 -0.000135385 -1.10513e-06 -1.10513e-06 7.17771e-06 7.17771e-06 -1.10513e-06 -1.10513e-06 7.17771e-06 7.17771e-06 7.17771e-06 7.17771e-06 3.79323e-06 3.79323e-06 7.17771e-06 7.17771e-06 3.79323e-06 3.79323e-06 -1.10513e-06 -1.10513e-06 7.17771e-06 7.17771e-06 -1.10513e-06 -1.10513e-06 7.17771e-06 7.17771e-06 7.17771e-06 7.17771e-06 3.79323e-06 3.79323e-06 7.17771e-06 7.17771e-06 3.79323e-06 3.79323e-06 3.79323e-06 3.79323e-06 -4.5987e-05 -4.5987e-05 3.79323e-06 3.79323e-06 -4.5987e-05 -4.5987e-05 -4.5987e-05 -4.5987e-05 -0.000135385 -0.000135385 -4.5987e-05 -4.5987e-05 -0.000135385 -0.000135385 3.79323e-06 3.79323e-06 -4.5987e-05 -4.5987e-05 3.79323e-06 3.79323e-06 -4.5987e-05 -4.5987e-05 -4.5987e-05 -4.5987e-05 -0.000135385 -0.000135385 -4.5987e-05 -4.5987e-05 -0.000135385 -0.000135385 -0.000135385 -0.000135385 -0.000240652 -0.000240652 -0.000135385 -0.000135385 -0.000240652 -0.000240652 -0.000240652 -0.000240652 -0.00035015 -0.00035015 -0.000240652 -0.000240652 -0.00035015 -0.00035015 -0.000135385 -0.000135385 -0.000240652 -0.000240652 -0.000135385 -0.000135385 -0.000240652 -0.000240652 -0.000240652 -0.000240652 -0.00035015 -0.00035015 -0.000240652 -0.000240652 -0.00035015 -0.00035015 -0.00035015 -0.00035015 -0.000459997 -0.000459997 -0.00035015 -0.00035015 -0.000459997 -0.000459997 -0.000459997 -0.000459997 -0.00057 -0.00057 -0.000459997 -0.000459997 -0.00057 -0.00057 -0.00035015 -0.00035015 -0.000459997 -0.000459997 -0.00035015 -0.00035015 -0.000459997 -0.000459997 -0.000459997 -0.000459997 -0.00057 -0.00057 -0.000459997 -0.000459997 -0.00057 -0.00057 -0.000135385 -0.000135385 -0.000240652 -0.000240652 -0.000135385 -0.000135385 -0.000240652 -0.000240652 -0.000240652 -0.000240652 -0.00035015 -0.00035015 -0.000240652 -0.000240652 -0.00035015 -0.00035015 -0.000135385 -0.000135385 -0.000240652 -0.000240652 -0.000135385 -0.000135385 -0.000240652 -0.000240652 -0.000240652 -0.000240652 -0.00035015 -0.00035015 -0.000240652 -0.000240652 -0.00035015 -0.00035015 -0.00035015 -0.00035015 -0.000459997 -0.000459997 -0.00035015 -0.00035015 -0.000459997 -0.000459997 -0.000459997 -0.000459997 -0.00057 -0.00057 -0.000459997 -0.000459997 -0.00057 -0.00057 -0.00035015 -0.00035015 -0.000459997 -0.000459997 -0.00035015 -0.00035015 -0.000459997 -0.000459997 -0.000459997 -0.000459997 -0.00057 -0.00057 -0.000459997 -0.000459997 -0.00057 -0.00057 5.40271e-10 1.18506e-09 -3.64421e-10 -5.28729e-10 1.18506e-09 1.13186e-09 -5.28729e-10 -5.59831e-10 -3.64421e-10 -5.28729e-10 -3.56524e-09 -3.53191e-09 -5.28729e-10 -5.59831e-10 -3.53191e-09 -3.51886e-09 1.13186e-09 1.06707e-09 -5.59831e-10 -5.64816e-10 1.06707e-09 1.07705e-09 -5.64816e-10 -5.59057e-10 -5.59831e-10 -5.64816e-10 -3.51886e-09 -3.5158e-09 -5.64816e-10 -5.59057e-10 -3.5158e-09 -3.51828e-09 -3.56524e-09 -3.53191e-09 1.75884e-08 1.75889e-08 -3.53191e-09 -3.51886e-09 1.75889e-08 1.75863e-08 1.75884e-08 1.75889e-08 -3.55212e-08 -3.55249e-08 1.75889e-08 1.75863e-08 -3.55249e-08 -3.55259e-08 -3.51886e-09 -3.5158e-09 1.75863e-08 1.75829e-08 -3.5158e-09 -3.51828e-09 1.75829e-08 1.75842e-08 1.75863e-08 1.75829e-08 -3.55259e-08 -3.5524e-08 1.75829e-08 1.75842e-08 -3.5524e-08 -3.55237e-08 1.07705e-09 1.0827e-09 -5.59057e-10 -5.57235e-10 1.0827e-09 1.08103e-09 -5.57235e-10 -5.58422e-10 -5.59057e-10 -5.57235e-10 -3.51828e-09 -3.51774e-09 -5.57235e-10 -5.58422e-10 -3.51774e-09 -3.51757e-09 1.08103e-09 1.08061e-09 -5.58422e-10 -5.58502e-10 1.08061e-09 1.08087e-09 -5.58502e-10 -5.58333e-10 -5.58422e-10 -5.58502e-10 -3.51757e-09 -3.51773e-09 -5.58502e-10 -5.58333e-10 -3.51773e-09 -3.51771e-09 -3.51828e-09 -3.51774e-09 1.75842e-08 1.75847e-08 -3.51774e-09 -3.51757e-09 1.75847e-08 1.75844e-08 1.75842e-08 1.75847e-08 -3.55237e-08 -3.55241e-08 1.75847e-08 1.75844e-08 -3.55241e-08 -3.55242e-08 -3.51757e-09 -3.51773e-09 1.75844e-08 1.75844e-08 -3.51773e-09 -3.51771e-09 1.75844e-08 1.75844e-08 1.75844e-08 1.75844e-08 -3.55242e-08 -3.55241e-08 1.75844e-08 1.75844e-08 -3.55241e-08 -3.55241e-08 -3.55212e-08 -3.55249e-08 -2.5517e-08 -2.55156e-08 -3.55249e-08 -3.55259e-08 -2.55156e-08 -2.55147e-08 -2.5517e-08 -2.55156e-08 3.6998e-07 3.6998e-07 -2.55156e-08 -2.55147e-08 3.6998e-07 3.6998e-07 -3.55259e-08 -3.5524e-08 -2.55147e-08 -2.5515e-08 -3.5524e-08 -3.55237e-08 -2.5515e-08 -2.55154e-08 -2.55147e-08 -2.5515e-08 3.6998e-07 3.6998e-07 -2.5515e-08 -2.55154e-08 3.6998e-07 3.6998e-07 3.6998e-07 3.6998e-07 -7.86292e-07 -7.86292e-07 3.6998e-07 3.6998e-07 -7.86292e-07 -7.86292e-07 -7.86292e-07 -7.86292e-07 -1.10513e-06 -1.10513e-06 -7.86292e-07 -7.86292e-07 -1.10513e-06 -1.10513e-06 3.6998e-07 3.6998e-07 -7.86292e-07 -7.86292e-07 3.6998e-07 3.6998e-07 -7.86292e-07 -7.86292e-07 -7.86292e-07 -7.86292e-07 -1.10513e-06 -1.10513e-06 -7.86292e-07 -7.86292e-07 -1.10513e-06 -1.10513e-06 -3.55237e-08 -3.55241e-08 -2.55154e-08 -2.55154e-08 -3.55241e-08 -3.55242e-08 -2.55154e-08 -2.55153e-08 -2.55154e-08 -2.55154e-08 3.6998e-07 3.6998e-07 -2.55154e-08 -2.55153e-08 3.6998e-07 3.6998e-07 -3.55242e-08 -3.55241e-08 -2.55153e-08 -2.55153e-08 -3.55241e-08 -3.55241e-08 -2.55153e-08 -2.55153e-08 -2.55153e-08 -2.55153e-08 3.6998e-07 3.6998e-07 -2.55153e-08 -2.55153e-08 3.6998e-07 3.6998e-07 3.6998e-07 3.6998e-07 -7.86292e-07 -7.86292e-07 3.6998e-07 3.6998e-07 -7.86292e-07 -7.86292e-07 -7.86292e-07 -7.86292e-07 -1.10513e-06 -1.10513e-06 -7.86292e-07 -7.86292e-07 -1.10513e-06 -1.10513e-06 3.6998e-07 3.6998e-07 -7.86292e-07 -7.86292e-07 3.6998e-07 3.6998e-07 -7.86292e-07 -7.86292e-07 -7.86292e-07 -7.86292e-07 -1.10513e-06 -1.10513e-06 -7.86292e-07 -7.86292e-07 -1.10513e-06 -1.10513e-06 1.08087e-09 1.08087e-09 -5.58333e-10 -5.5836e-10 1.08087e-09 1.08084e-09 -5.5836e-10 -5.58373e-10 -5.58333e-10 -5.5836e-10 -3.51771e-09 -3.51769e-09 -5.5836e-10 -5.58373e-10 -3.51769e-09 -3.5177e-09 1.08084e-09 1.08084e-09 -5.58373e-10 -5.5837e-10 1.08084e-09 1.08084e-09 -5.5837e-10 -5.58373e-10 -5.58373e-10 -5.5837e-10 -3.5177e-09 -3.51768e-09 -5.5837e-10 -5.58373e-10 -3.51768e-09 -3.51766e-09 -3.51771e-09 -3.51769e-09 1.75844e-08 1.75844e-08 -3.51769e-09 -3.5177e-09 1.75844e-08 1.75844e-08 1.75844e-08 1.75844e-08 -3.55241e-08 -3.55241e-08 1.75844e-08 1.75844e-08 -3.55241e-08 -3.55242e-08 -3.5177e-09 -3.51768e-09 1.75844e-08 1.75845e-08 -3.51768e-09 -3.51766e-09 1.75845e-08 1.75845e-08 1.75844e-08 1.75845e-08 -3.55242e-08 -3.55243e-08 1.75845e-08 1.75845e-08 -3.55243e-08 -3.55245e-08 1.08084e-09 1.08084e-09 -5.58373e-10 -5.58381e-10 1.08084e-09 1.08084e-09 -5.58381e-10 -5.58393e-10 -5.58373e-10 -5.58381e-10 -3.51766e-09 -3.51764e-09 -5.58381e-10 -5.58393e-10 -3.51764e-09 -3.5176e-09 1.08084e-09 1.08083e-09 -5.58393e-10 -5.58405e-10 1.08083e-09 1.08083e-09 -5.58405e-10 -5.58409e-10 -5.58393e-10 -5.58405e-10 -3.5176e-09 -3.51757e-09 -5.58405e-10 -5.58409e-10 -3.51757e-09 -3.51756e-09 -3.51766e-09 -3.51764e-09 1.75845e-08 1.75846e-08 -3.51764e-09 -3.5176e-09 1.75846e-08 1.75848e-08 1.75845e-08 1.75846e-08 -3.55245e-08 -3.55248e-08 1.75846e-08 1.75848e-08 -3.55248e-08 -3.55253e-08 -3.5176e-09 -3.51757e-09 1.75848e-08 1.75849e-08 -3.51757e-09 -3.51756e-09 1.75849e-08 1.75849e-08 1.75848e-08 1.75849e-08 -3.55253e-08 -3.55257e-08 1.75849e-08 1.75849e-08 -3.55257e-08 -3.55259e-08 -3.55241e-08 -3.55241e-08 -2.55153e-08 -2.55154e-08 -3.55241e-08 -3.55242e-08 -2.55154e-08 -2.55156e-08 -2.55153e-08 -2.55154e-08 3.6998e-07 3.6998e-07 -2.55154e-08 -2.55156e-08 3.6998e-07 3.6998e-07 -3.55242e-08 -3.55243e-08 -2.55156e-08 -2.55161e-08 -3.55243e-08 -3.55245e-08 -2.55161e-08 -2.55172e-08 -2.55156e-08 -2.55161e-08 3.6998e-07 3.69981e-07 -2.55161e-08 -2.55172e-08 3.69981e-07 3.69981e-07 3.6998e-07 3.6998e-07 -7.86292e-07 -7.8629e-07 3.6998e-07 3.6998e-07 -7.8629e-07 -7.86286e-07 -7.86292e-07 -7.8629e-07 -1.10513e-06 -1.10512e-06 -7.8629e-07 -7.86286e-07 -1.10512e-06 -1.1051e-06 3.6998e-07 3.69981e-07 -7.86286e-07 -7.86276e-07 3.69981e-07 3.69981e-07 -7.86276e-07 -7.86255e-07 -7.86286e-07 -7.86276e-07 -1.1051e-06 -1.10505e-06 -7.86276e-07 -7.86255e-07 -1.10505e-06 -1.10496e-06 -3.55245e-08 -3.55248e-08 -2.55172e-08 -2.55191e-08 -3.55248e-08 -3.55253e-08 -2.55191e-08 -2.55212e-08 -2.55172e-08 -2.55191e-08 3.69981e-07 3.69983e-07 -2.55191e-08 -2.55212e-08 3.69983e-07 3.69985e-07 -3.55253e-08 -3.55257e-08 -2.55212e-08 -2.55228e-08 -3.55257e-08 -3.55259e-08 -2.55228e-08 -2.55233e-08 -2.55212e-08 -2.55228e-08 3.69985e-07 3.69987e-07 -2.55228e-08 -2.55233e-08 3.69987e-07 3.69988e-07 3.69981e-07 3.69983e-07 -7.86255e-07 -7.86225e-07 3.69983e-07 3.69985e-07 -7.86225e-07 -7.86193e-07 -7.86255e-07 -7.86225e-07 -1.10496e-06 -1.10485e-06 -7.86225e-07 -7.86193e-07 -1.10485e-06 -1.10472e-06 3.69985e-07 3.69987e-07 -7.86193e-07 -7.86168e-07 3.69987e-07 3.69988e-07 -7.86168e-07 -7.86159e-07 -7.86193e-07 -7.86168e-07 -1.10472e-06 -1.10462e-06 -7.86168e-07 -7.86159e-07 -1.10462e-06 -1.10458e-06 -1.10513e-06 -1.10513e-06 7.17771e-06 7.17771e-06 -1.10513e-06 -1.10513e-06 7.17771e-06 7.17771e-06 7.17771e-06 7.17771e-06 3.79323e-06 3.79323e-06 7.17771e-06 7.17771e-06 3.79323e-06 3.79323e-06 -1.10513e-06 -1.10513e-06 7.17771e-06 7.17771e-06 -1.10513e-06 -1.10513e-06 7.17771e-06 7.17771e-06 7.17771e-06 7.17771e-06 3.79323e-06 3.79323e-06 7.17771e-06 7.17771e-06 3.79323e-06 3.79323e-06 3.79323e-06 3.79323e-06 -4.5987e-05 -4.5987e-05 3.79323e-06 3.79323e-06 -4.5987e-05 -4.5987e-05 -4.5987e-05 -4.5987e-05 -0.000135385 -0.000135385 -4.5987e-05 -4.5987e-05 -0.000135385 -0.000135385 3.79323e-06 3.79323e-06 -4.5987e-05 -4.5987e-05 3.79323e-06 3.79323e-06 -4.5987e-05 -4.5987e-05 -4.5987e-05 -4.5987e-05 -0.000135385 -0.000135385 -4.5987e-05 -4.5987e-05 -0.000135385 -0.000135385 -1.10513e-06 -1.10513e-06