# vtk DataFile Version 3.0
#This file was generated by the deal.II library on 2022/11/16 at 21:22:32
ASCII
DATASET UNSTRUCTURED_GRID

POINTS 4096 double
0 0.5 0
0.03125 0.5 0
0 0.53125 0
0.03125 0.53125 0
0.03125 0.5 0
0.0625 0.5 0
0.03125 0.53125 0
0.0625 0.53125 0
0 0.53125 0
0.03125 0.53125 0
0 0.5625 0
0.03125 0.5625 0
0.03125 0.53125 0
0.0625 0.53125 0
0.03125 0.5625 0
0.0625 0.5625 0
0.0625 0.5 0
0.09375 0.5 0
0.0625 0.53125 0
0.09375 0.53125 0
0.09375 0.5 0
0.125 0.5 0
0.09375 0.53125 0
0.125 0.53125 0
0.0625 0.53125 0
0.09375 0.53125 0
0.0625 0.5625 0
0.09375 0.5625 0
0.09375 0.53125 0
0.125 0.53125 0
0.09375 0.5625 0
0.125 0.5625 0
0 0.5625 0
0.03125 0.5625 0
0 0.59375 0
0.03125 0.59375 0
0.03125 0.5625 0
0.0625 0.5625 0
0.03125 0.59375 0
0.0625 0.59375 0
0 0.59375 0
0.03125 0.59375 0
0 0.625 0
0.03125 0.625 0
0.03125 0.59375 0
0.0625 0.59375 0
0.03125 0.625 0
0.0625 0.625 0
0.0625 0.5625 0
0.09375 0.5625 0
0.0625 0.59375 0
0.09375 0.59375 0
0.09375 0.5625 0
0.125 0.5625 0
0.09375 0.59375 0
0.125 0.59375 0
0.0625 0.59375 0
0.09375 0.59375 0
0.0625 0.625 0
0.09375 0.625 0
0.09375 0.59375 0
0.125 0.59375 0
0.09375 0.625 0
0.125 0.625 0
0.125 0.5 0
0.15625 0.5 0
0.125 0.53125 0
0.15625 0.53125 0
0.15625 0.5 0
0.1875 0.5 0
0.15625 0.53125 0
0.1875 0.53125 0
0.125 0.53125 0
0.15625 0.53125 0
0.125 0.5625 0
0.15625 0.5625 0
0.15625 0.53125 0
0.1875 0.53125 0
0.15625 0.5625 0
0.1875 0.5625 0
0.1875 0.5 0
0.21875 0.5 0
0.1875 0.53125 0
0.21875 0.53125 0
0.21875 0.5 0
0.25 0.5 0
0.21875 0.53125 0
0.25 0.53125 0
0.1875 0.53125 0
0.21875 0.53125 0
0.1875 0.5625 0
0.21875 0.5625 0
0.21875 0.53125 0
0.25 0.53125 0
0.21875 0.5625 0
0.25 0.5625 0
0.125 0.5625 0
0.15625 0.5625 0
0.125 0.59375 0
0.15625 0.59375 0
0.15625 0.5625 0
0.1875 0.5625 0
0.15625 0.59375 0
0.1875 0.59375 0
0.125 0.59375 0
0.15625 0.59375 0
0.125 0.625 0
0.15625 0.625 0
0.15625 0.59375 0
0.1875 0.59375 0
0.15625 0.625 0
0.1875 0.625 0
0.1875 0.5625 0
0.21875 0.5625 0
0.1875 0.59375 0
0.21875 0.59375 0
0.21875 0.5625 0
0.25 0.5625 0
0.21875 0.59375 0
0.25 0.59375 0
0.1875 0.59375 0
0.21875 0.59375 0
0.1875 0.625 0
0.21875 0.625 0
0.21875 0.59375 0
0.25 0.59375 0
0.21875 0.625 0
0.25 0.625 0
0 0.625 0
0.03125 0.625 0
0 0.65625 0
0.03125 0.65625 0
0.03125 0.625 0
0.0625 0.625 0
0.03125 0.65625 0
0.0625 0.65625 0
0 0.65625 0
0.03125 0.65625 0
0 0.6875 0
0.03125 0.6875 0
0.03125 0.65625 0
0.0625 0.65625 0
0.03125 0.6875 0
0.0625 0.6875 0
0.0625 0.625 0
0.09375 0.625 0
0.0625 0.65625 0
0.09375 0.65625 0
0.09375 0.625 0
0.125 0.625 0
0.09375 0.65625 0
0.125 0.65625 0
0.0625 0.65625 0
0.09375 0.65625 0
0.0625 0.6875 0
0.09375 0.6875 0
0.09375 0.65625 0
0.125 0.65625 0
0.09375 0.6875 0
0.125 0.6875 0
0 0.6875 0
0.03125 0.6875 0
0 0.71875 0
0.03125 0.71875 0
0.03125 0.6875 0
0.0625 0.6875 0
0.03125 0.71875 0
0.0625 0.71875 0
0 0.71875 0
0.03125 0.71875 0
0 0.75 0
0.03125 0.75 0
0.03125 0.71875 0
0.0625 0.71875 0
0.03125 0.75 0
0.0625 0.75 0
0.0625 0.6875 0
0.09375 0.6875 0
0.0625 0.71875 0
0.09375 0.71875 0
0.09375 0.6875 0
0.125 0.6875 0
0.09375 0.71875 0
0.125 0.71875 0
0.0625 0.71875 0
0.09375 0.71875 0
0.0625 0.75 0
0.09375 0.75 0
0.09375 0.71875 0
0.125 0.71875 0
0.09375 0.75 0
0.125 0.75 0
0.125 0.625 0
0.15625 0.625 0
0.125 0.65625 0
0.15625 0.65625 0
0.15625 0.625 0
0.1875 0.625 0
0.15625 0.65625 0
0.1875 0.65625 0
0.125 0.65625 0
0.15625 0.65625 0
0.125 0.6875 0
0.15625 0.6875 0
0.15625 0.65625 0
0.1875 0.65625 0
0.15625 0.6875 0
0.1875 0.6875 0
0.1875 0.625 0
0.21875 0.625 0
0.1875 0.65625 0
0.21875 0.65625 0
0.21875 0.625 0
0.25 0.625 0
0.21875 0.65625 0
0.25 0.65625 0
0.1875 0.65625 0
0.21875 0.65625 0
0.1875 0.6875 0
0.21875 0.6875 0
0.21875 0.65625 0
0.25 0.65625 0
0.21875 0.6875 0
0.25 0.6875 0
0.125 0.6875 0
0.15625 0.6875 0
0.125 0.71875 0
0.15625 0.71875 0
0.15625 0.6875 0
0.1875 0.6875 0
0.15625 0.71875 0
0.1875 0.71875 0
0.125 0.71875 0
0.15625 0.71875 0
0.125 0.75 0
0.15625 0.75 0
0.15625 0.71875 0
0.1875 0.71875 0
0.15625 0.75 0
0.1875 0.75 0
0.1875 0.6875 0
0.21875 0.6875 0
0.1875 0.71875 0
0.21875 0.71875 0
0.21875 0.6875 0
0.25 0.6875 0
0.21875 0.71875 0
0.25 0.71875 0
0.1875 0.71875 0
0.21875 0.71875 0
0.1875 0.75 0
0.21875 0.75 0
0.21875 0.71875 0
0.25 0.71875 0
0.21875 0.75 0
0.25 0.75 0
0.25 0.5 0
0.28125 0.5 0
0.25 0.53125 0
0.28125 0.53125 0
0.28125 0.5 0
0.3125 0.5 0
0.28125 0.53125 0
0.3125 0.53125 0
0.25 0.53125 0
0.28125 0.53125 0
0.25 0.5625 0
0.28125 0.5625 0
0.28125 0.53125 0
0.3125 0.53125 0
0.28125 0.5625 0
0.3125 0.5625 0
0.3125 0.5 0
0.34375 0.5 0
0.3125 0.53125 0
0.34375 0.53125 0
0.34375 0.5 0
0.375 0.5 0
0.34375 0.53125 0
0.375 0.53125 0
0.3125 0.53125 0
0.34375 0.53125 0
0.3125 0.5625 0
0.34375 0.5625 0
0.34375 0.53125 0
0.375 0.53125 0
0.34375 0.5625 0
0.375 0.5625 0
0.25 0.5625 0
0.28125 0.5625 0
0.25 0.59375 0
0.28125 0.59375 0
0.28125 0.5625 0
0.3125 0.5625 0
0.28125 0.59375 0
0.3125 0.59375 0
0.25 0.59375 0
0.28125 0.59375 0
0.25 0.625 0
0.28125 0.625 0
0.28125 0.59375 0
0.3125 0.59375 0
0.28125 0.625 0
0.3125 0.625 0
0.3125 0.5625 0
0.34375 0.5625 0
0.3125 0.59375 0
0.34375 0.59375 0
0.34375 0.5625 0
0.375 0.5625 0
0.34375 0.59375 0
0.375 0.59375 0
0.3125 0.59375 0
0.34375 0.59375 0
0.3125 0.625 0
0.34375 0.625 0
0.34375 0.59375 0
0.375 0.59375 0
0.34375 0.625 0
0.375 0.625 0
0.375 0.5 0
0.40625 0.5 0
0.375 0.53125 0
0.40625 0.53125 0
0.40625 0.5 0
0.4375 0.5 0
0.40625 0.53125 0
0.4375 0.53125 0
0.375 0.53125 0
0.40625 0.53125 0
0.375 0.5625 0
0.40625 0.5625 0
0.40625 0.53125 0
0.4375 0.53125 0
0.40625 0.5625 0
0.4375 0.5625 0
0.4375 0.5 0
0.46875 0.5 0
0.4375 0.53125 0
0.46875 0.53125 0
0.46875 0.5 0
0.5 0.5 0
0.46875 0.53125 0
0.5 0.53125 0
0.4375 0.53125 0
0.46875 0.53125 0
0.4375 0.5625 0
0.46875 0.5625 0
0.46875 0.53125 0
0.5 0.53125 0
0.46875 0.5625 0
0.5 0.5625 0
0.375 0.5625 0
0.40625 0.5625 0
0.375 0.59375 0
0.40625 0.59375 0
0.40625 0.5625 0
0.4375 0.5625 0
0.40625 0.59375 0
0.4375 0.59375 0
0.375 0.59375 0
0.40625 0.59375 0
0.375 0.625 0
0.40625 0.625 0
0.40625 0.59375 0
0.4375 0.59375 0
0.40625 0.625 0
0.4375 0.625 0
0.4375 0.5625 0
0.46875 0.5625 0
0.4375 0.59375 0
0.46875 0.59375 0
0.46875 0.5625 0
0.5 0.5625 0
0.46875 0.59375 0
0.5 0.59375 0
0.4375 0.59375 0
0.46875 0.59375 0
0.4375 0.625 0
0.46875 0.625 0
0.46875 0.59375 0
0.5 0.59375 0
0.46875 0.625 0
0.5 0.625 0
0.25 0.625 0
0.28125 0.625 0
0.25 0.65625 0
0.28125 0.65625 0
0.28125 0.625 0
0.3125 0.625 0
0.28125 0.65625 0
0.3125 0.65625 0
0.25 0.65625 0
0.28125 0.65625 0
0.25 0.6875 0
0.28125 0.6875 0
0.28125 0.65625 0
0.3125 0.65625 0
0.28125 0.6875 0
0.3125 0.6875 0
0.3125 0.625 0
0.34375 0.625 0
0.3125 0.65625 0
0.34375 0.65625 0
0.34375 0.625 0
0.375 0.625 0
0.34375 0.65625 0
0.375 0.65625 0
0.3125 0.65625 0
0.34375 0.65625 0
0.3125 0.6875 0
0.34375 0.6875 0
0.34375 0.65625 0
0.375 0.65625 0
0.34375 0.6875 0
0.375 0.6875 0
0.25 0.6875 0
0.28125 0.6875 0
0.25 0.71875 0
0.28125 0.71875 0
0.28125 0.6875 0
0.3125 0.6875 0
0.28125 0.71875 0
0.3125 0.71875 0
0.25 0.71875 0
0.28125 0.71875 0
0.25 0.75 0
0.28125 0.75 0
0.28125 0.71875 0
0.3125 0.71875 0
0.28125 0.75 0
0.3125 0.75 0
0.3125 0.6875 0
0.34375 0.6875 0
0.3125 0.71875 0
0.34375 0.71875 0
0.34375 0.6875 0
0.375 0.6875 0
0.34375 0.71875 0
0.375 0.71875 0
0.3125 0.71875 0
0.34375 0.71875 0
0.3125 0.75 0
0.34375 0.75 0
0.34375 0.71875 0
0.375 0.71875 0
0.34375 0.75 0
0.375 0.75 0
0.375 0.625 0
0.40625 0.625 0
0.375 0.65625 0
0.40625 0.65625 0
0.40625 0.625 0
0.4375 0.625 0
0.40625 0.65625 0
0.4375 0.65625 0
0.375 0.65625 0
0.40625 0.65625 0
0.375 0.6875 0
0.40625 0.6875 0
0.40625 0.65625 0
0.4375 0.65625 0
0.40625 0.6875 0
0.4375 0.6875 0
0.4375 0.625 0
0.46875 0.625 0
0.4375 0.65625 0
0.46875 0.65625 0
0.46875 0.625 0
0.5 0.625 0
0.46875 0.65625 0
0.5 0.65625 0
0.4375 0.65625 0
0.46875 0.65625 0
0.4375 0.6875 0
0.46875 0.6875 0
0.46875 0.65625 0
0.5 0.65625 0
0.46875 0.6875 0
0.5 0.6875 0
0.375 0.6875 0
0.40625 0.6875 0
0.375 0.71875 0
0.40625 0.71875 0
0.40625 0.6875 0
0.4375 0.6875 0
0.40625 0.71875 0
0.4375 0.71875 0
0.375 0.71875 0
0.40625 0.71875 0
0.375 0.75 0
0.40625 0.75 0
0.40625 0.71875 0
0.4375 0.71875 0
0.40625 0.75 0
0.4375 0.75 0
0.4375 0.6875 0
0.46875 0.6875 0
0.4375 0.71875 0
0.46875 0.71875 0
0.46875 0.6875 0
0.5 0.6875 0
0.46875 0.71875 0
0.5 0.71875 0
0.4375 0.71875 0
0.46875 0.71875 0
0.4375 0.75 0
0.46875 0.75 0
0.46875 0.71875 0
0.5 0.71875 0
0.46875 0.75 0
0.5 0.75 0
0 0.75 0
0.03125 0.75 0
0 0.78125 0
0.03125 0.78125 0
0.03125 0.75 0
0.0625 0.75 0
0.03125 0.78125 0
0.0625 0.78125 0
0 0.78125 0
0.03125 0.78125 0
0 0.8125 0
0.03125 0.8125 0
0.03125 0.78125 0
0.0625 0.78125 0
0.03125 0.8125 0
0.0625 0.8125 0
0.0625 0.75 0
0.09375 0.75 0
0.0625 0.78125 0
0.09375 0.78125 0
0.09375 0.75 0
0.125 0.75 0
0.09375 0.78125 0
0.125 0.78125 0
0.0625 0.78125 0
0.09375 0.78125 0
0.0625 0.8125 0
0.09375 0.8125 0
0.09375 0.78125 0
0.125 0.78125 0
0.09375 0.8125 0
0.125 0.8125 0
0 0.8125 0
0.03125 0.8125 0
0 0.84375 0
0.03125 0.84375 0
0.03125 0.8125 0
0.0625 0.8125 0
0.03125 0.84375 0
0.0625 0.84375 0
0 0.84375 0
0.03125 0.84375 0
0 0.875 0
0.03125 0.875 0
0.03125 0.84375 0
0.0625 0.84375 0
0.03125 0.875 0
0.0625 0.875 0
0.0625 0.8125 0
0.09375 0.8125 0
0.0625 0.84375 0
0.09375 0.84375 0
0.09375 0.8125 0
0.125 0.8125 0
0.09375 0.84375 0
0.125 0.84375 0
0.0625 0.84375 0
0.09375 0.84375 0
0.0625 0.875 0
0.09375 0.875 0
0.09375 0.84375 0
0.125 0.84375 0
0.09375 0.875 0
0.125 0.875 0
0.125 0.75 0
0.15625 0.75 0
0.125 0.78125 0
0.15625 0.78125 0
0.15625 0.75 0
0.1875 0.75 0
0.15625 0.78125 0
0.1875 0.78125 0
0.125 0.78125 0
0.15625 0.78125 0
0.125 0.8125 0
0.15625 0.8125 0
0.15625 0.78125 0
0.1875 0.78125 0
0.15625 0.8125 0
0.1875 0.8125 0
0.1875 0.75 0
0.21875 0.75 0
0.1875 0.78125 0
0.21875 0.78125 0
0.21875 0.75 0
0.25 0.75 0
0.21875 0.78125 0
0.25 0.78125 0
0.1875 0.78125 0
0.21875 0.78125 0
0.1875 0.8125 0
0.21875 0.8125 0
0.21875 0.78125 0
0.25 0.78125 0
0.21875 0.8125 0
0.25 0.8125 0
0.125 0.8125 0
0.15625 0.8125 0
0.125 0.84375 0
0.15625 0.84375 0
0.15625 0.8125 0
[...]
POINT_DATA 4096
SCALARS x_dis double 1
LOOKUP_TABLE default
1.79738e-10 1.79694e-10 2.08296e-08 2.08293e-08 1.79694e-10 1.79584e-10 2.08293e-08 2.08286e-08 2.08296e-08 2.08293e-08 -6.58461e-08 -6.58462e-08 2.08293e-08 2.08286e-08 -6.58462e-08 -6.58467e-08 1.79584e-10 1.7945e-10 2.08286e-08 2.08275e-08 1.7945e-10 1.79334e-10 2.08275e-08 2.08265e-08 2.08286e-08 2.08275e-08 -6.58467e-08 -6.58475e-08 2.08275e-08 2.08265e-08 -6.58475e-08 -6.58484e-08 -6.58461e-08 -6.58462e-08 2.83479e-08 2.83504e-08 -6.58462e-08 -6.58467e-08 2.83504e-08 2.83571e-08 2.83479e-08 2.83504e-08 3.98296e-07 3.98307e-07 2.83504e-08 2.83571e-08 3.98307e-07 3.98337e-07 -6.58467e-08 -6.58475e-08 2.83571e-08 2.83658e-08 -6.58475e-08 -6.58484e-08 2.83658e-08 2.8374e-08 2.83571e-08 2.83658e-08 3.98337e-07 3.98379e-07 2.83658e-08 2.8374e-08 3.98379e-07 3.98423e-07 1.79334e-10 1.79254e-10 2.08265e-08 2.08257e-08 1.79254e-10 1.79214e-10 2.08257e-08 2.08252e-08 2.08265e-08 2.08257e-08 -6.58484e-08 -6.58494e-08 2.08257e-08 2.08252e-08 -6.58494e-08 -6.58501e-08 1.79214e-10 1.79206e-10 2.08252e-08 2.08248e-08 1.79206e-10 1.79204e-10 2.08248e-08 2.08247e-08 2.08252e-08 2.08248e-08 -6.58501e-08 -6.58506e-08 2.08248e-08 2.08247e-08 -6.58506e-08 -6.5851e-08 -6.58484e-08 -6.58494e-08 2.8374e-08 2.83804e-08 -6.58494e-08 -6.58501e-08 2.83804e-08 2.83844e-08 2.8374e-08 2.83804e-08 3.98423e-07 3.98461e-07 2.83804e-08 2.83844e-08 3.98461e-07 3.98488e-07 -6.58501e-08 -6.58506e-08 2.83844e-08 2.83867e-08 -6.58506e-08 -6.5851e-08 2.83867e-08 2.83877e-08 2.83844e-08 2.83867e-08 3.98488e-07 3.98504e-07 2.83867e-08 2.83877e-08 3.98504e-07 3.98513e-07 3.98296e-07 3.98307e-07 -9.73205e-07 -9.73175e-07 3.98307e-07 3.98337e-07 -9.73175e-07 -9.73093e-07 -9.73205e-07 -9.73175e-07 -1.15553e-06 -1.15546e-06 -9.73175e-07 -9.73093e-07 -1.15546e-06 -1.15527e-06 3.98337e-07 3.98379e-07 -9.73093e-07 -9.72976e-07 3.98379e-07 3.98423e-07 -9.72976e-07 -9.72849e-07 -9.73093e-07 -9.72976e-07 -1.15527e-06 -1.155e-06 -9.72976e-07 -9.72849e-07 -1.155e-06 -1.15472e-06 -1.15553e-06 -1.15546e-06 6.82208e-06 6.82223e-06 -1.15546e-06 -1.15527e-06 6.82223e-06 6.82264e-06 6.82208e-06 6.82223e-06 6.55284e-06 6.55314e-06 6.82223e-06 6.82264e-06 6.55314e-06 6.55392e-06 -1.15527e-06 -1.155e-06 6.82264e-06 6.82319e-06 -1.155e-06 -1.15472e-06 6.82319e-06 6.82377e-06 6.82264e-06 6.82319e-06 6.55392e-06 6.55494e-06 6.82319e-06 6.82377e-06 6.55494e-06 6.55598e-06 3.98423e-07 3.98461e-07 -9.72849e-07 -9.72732e-07 3.98461e-07 3.98488e-07 -9.72732e-07 -9.72642e-07 -9.72849e-07 -9.72732e-07 -1.15472e-06 -1.15445e-06 -9.72732e-07 -9.72642e-07 -1.15445e-06 -1.15424e-06 3.98488e-07 3.98504e-07 -9.72642e-07 -9.72583e-07 3.98504e-07 3.98513e-07 -9.72583e-07 -9.7255e-07 -9.72642e-07 -9.72583e-07 -1.15424e-06 -1.15409e-06 -9.72583e-07 -9.7255e-07 -1.15409e-06 -1.154e-06 -1.15472e-06 -1.15445e-06 6.82377e-06 6.82429e-06 -1.15445e-06 -1.15424e-06 6.82429e-06 6.8247e-06 6.82377e-06 6.82429e-06 6.55598e-06 6.55689e-06 6.82429e-06 6.8247e-06 6.55689e-06 6.55761e-06 -1.15424e-06 -1.15409e-06 6.8247e-06 6.825e-06 -1.15409e-06 -1.154e-06 6.825e-06 6.82519e-06 6.8247e-06 6.825e-06 6.55761e-06 6.55812e-06 6.825e-06 6.82519e-06 6.55812e-06 6.55846e-06 1.79204e-10 1.79196e-10 2.08247e-08 2.08247e-08 1.79196e-10 1.79229e-10 2.08247e-08 2.08252e-08 2.08247e-08 2.08247e-08 -6.5851e-08 -6.58511e-08 2.08247e-08 2.08252e-08 -6.58511e-08 -6.58507e-08 1.79229e-10 1.79242e-10 2.08252e-08 2.0824e-08 1.79242e-10 1.7898e-10 2.0824e-08 2.0819e-08 2.08252e-08 2.0824e-08 -6.58507e-08 -6.58519e-08 2.0824e-08 2.0819e-08 -6.58519e-08 -6.58544e-08 -6.5851e-08 -6.58511e-08 2.83877e-08 2.8388e-08 -6.58511e-08 -6.58507e-08 2.8388e-08 2.83883e-08 2.83877e-08 2.8388e-08 3.98513e-07 3.98517e-07 2.8388e-08 2.83883e-08 3.98517e-07 3.98518e-07 -6.58507e-08 -6.58519e-08 2.83883e-08 2.83877e-08 -6.58519e-08 -6.58544e-08 2.83877e-08 2.83862e-08 2.83883e-08 2.83877e-08 3.98518e-07 3.98519e-07 2.83877e-08 2.83862e-08 3.98519e-07 3.98518e-07 1.7898e-10 1.79188e-10 2.0819e-08 2.08324e-08 1.79188e-10 1.80167e-10 2.08324e-08 2.08791e-08 2.0819e-08 2.08324e-08 -6.58544e-08 -6.58464e-08 2.08324e-08 2.08791e-08 -6.58464e-08 -6.58414e-08 1.80167e-10 1.78021e-10 2.08791e-08 2.07934e-08 1.78021e-10 1.74793e-10 2.07934e-08 2.0177e-08 2.08791e-08 2.07934e-08 -6.58414e-08 -6.58362e-08 2.07934e-08 2.0177e-08 -6.58362e-08 -6.56296e-08 -6.58544e-08 -6.58464e-08 2.83862e-08 2.83898e-08 -6.58464e-08 -6.58414e-08 2.83898e-08 2.8397e-08 2.83862e-08 2.83898e-08 3.98518e-07 3.98515e-07 2.83898e-08 2.8397e-08 3.98515e-07 3.98522e-07 -6.58414e-08 -6.58362e-08 2.8397e-08 2.8385e-08 -6.58362e-08 -6.56296e-08 2.8385e-08 2.83715e-08 2.8397e-08 2.8385e-08 3.98522e-07 3.98535e-07 2.8385e-08 2.83715e-08 3.98535e-07 3.98509e-07 3.98513e-07 3.98517e-07 -9.7255e-07 -9.72534e-07 3.98517e-07 3.98518e-07 -9.72534e-07 -9.72528e-07 -9.7255e-07 -9.72534e-07 -1.154e-06 -1.15395e-06 -9.72534e-07 -9.72528e-07 -1.15395e-06 -1.15393e-06 3.98518e-07 3.98519e-07 -9.72528e-07 -9.72526e-07 3.98519e-07 3.98518e-07 -9.72526e-07 -9.72525e-07 -9.72528e-07 -9.72526e-07 -1.15393e-06 -1.15393e-06 -9.72526e-07 -9.72525e-07 -1.15393e-06 -1.15393e-06 -1.154e-06 -1.15395e-06 6.82519e-06 6.8253e-06 -1.15395e-06 -1.15393e-06 6.8253e-06 6.82535e-06 6.82519e-06 6.8253e-06 6.55846e-06 6.55866e-06 6.8253e-06 6.82535e-06 6.55866e-06 6.55876e-06 -1.15393e-06 -1.15393e-06 6.82535e-06 6.82536e-06 -1.15393e-06 -1.15393e-06 6.82536e-06 6.82537e-06 6.82535e-06 6.82536e-06 6.55876e-06 6.5588e-06 6.82536e-06 6.82537e-06 6.5588e-06 6.55881e-06 3.98518e-07 3.98515e-07 -9.72525e-07 -9.72526e-07 3.98515e-07 3.98522e-07 -9.72526e-07 -9.72531e-07 -9.72525e-07 -9.72526e-07 -1.15393e-06 -1.15393e-06 -9.72526e-07 -9.72531e-07 -1.15393e-06 -1.15393e-06 3.98522e-07 3.98535e-07 -9.72531e-07 -9.72532e-07 3.98535e-07 3.98509e-07 -9.72532e-07 -9.72517e-07 -9.72531e-07 -9.72532e-07 -1.15393e-06 -1.15393e-06 -9.72532e-07 -9.72517e-07 -1.15393e-06 -1.15393e-06 -1.15393e-06 -1.15393e-06 6.82537e-06 6.82537e-06 -1.15393e-06 -1.15393e-06 6.82537e-06 6.82537e-06 6.82537e-06 6.82537e-06 6.55881e-06 6.55881e-06 6.82537e-06 6.82537e-06 6.55881e-06 6.55881e-06 -1.15393e-06 -1.15393e-06 6.82537e-06 6.82537e-06 -1.15393e-06 -1.15393e-06 6.82537e-06 6.82537e-06 6.82537e-06 6.82537e-06 6.55881e-06 6.55881e-06 6.82537e-06 6.82537e-06 6.55881e-06 6.55881e-06 6.55284e-06 6.55314e-06 -3.24722e-05 -3.24715e-05 6.55314e-06 6.55392e-06 -3.24715e-05 -3.24701e-05 -3.24722e-05 -3.24715e-05 -0.000111671 -0.000111669 -3.24715e-05 -3.24701e-05 -0.000111669 -0.000111667 6.55392e-06 6.55494e-06 -3.24701e-05 -3.24684e-05 6.55494e-06 6.55598e-06 -3.24684e-05 -3.24667e-05 -3.24701e-05 -3.24684e-05 -0.000111667 -0.000111664 -3.24684e-05 -3.24667e-05 -0.000111664 -0.000111662 -0.000111671 -0.000111669 -0.000212321 -0.000212317 -0.000111669 -0.000111667 -0.000212317 -0.000212313 -0.000212321 -0.000212317 -0.000320467 -0.00032046 -0.000212317 -0.000212313 -0.00032046 -0.000320454 -0.000111667 -0.000111664 -0.000212313 -0.000212309 -0.000111664 -0.000111662 -0.000212309 -0.000212305 -0.000212313 -0.000212309 -0.000320454 -0.000320449 -0.000212309 -0.000212305 -0.000320449 -0.000320445 6.55598e-06 6.55689e-06 -3.24667e-05 -3.24653e-05 6.55689e-06 6.55761e-06 -3.24653e-05 -3.24641e-05 -3.24667e-05 -3.24653e-05 -0.000111662 -0.00011166 -3.24653e-05 -3.24641e-05 -0.00011166 -0.000111658 6.55761e-06 6.55812e-06 -3.24641e-05 -3.24633e-05 6.55812e-06 6.55846e-06 -3.24633e-05 -3.24628e-05 -3.24641e-05 -3.24633e-05 -0.000111658 -0.000111657 -3.24633e-05 -3.24628e-05 -0.000111657 -0.000111656 -0.000111662 -0.00011166 -0.000212305 -0.000212303 -0.00011166 -0.000111658 -0.000212303 -0.000212301 -0.000212305 -0.000212303 -0.000320445 -0.000320442 -0.000212303 -0.000212301 -0.000320442 -0.00032044 -0.000111658 -0.000111657 -0.000212301 -0.000212299 -0.000111657 -0.000111656 -0.000212299 -0.000212298 -0.000212301 -0.000212299 -0.00032044 -0.000320438 -0.000212299 -0.000212298 -0.000320438 -0.000320437 -0.000320467 -0.00032046 -0.000430106 -0.000430096 -0.00032046 -0.000320454 -0.000430096 -0.000430089 -0.000430106 -0.000430096 -0.000540088 -0.000540076 -0.000430096 -0.000430089 -0.000540076 -0.000540068 -0.000320454 -0.000320449 -0.000430089 -0.000430083 -0.000320449 -0.000320445 -0.000430083 -0.000430078 -0.000430089 -0.000430083 -0.000540068 -0.000540062 -0.000430083 -0.000430078 -0.000540062 -0.000540058 -0.000540088 -0.000540076 -0.000650037 -0.000650022 -0.000540076 -0.000540068 -0.000650022 -0.000650016 -0.000650037 -0.000650022 -0.00076 -0.00076 -0.000650022 -0.000650016 -0.00076 -0.00076 -0.000540068 -0.000540062 -0.000650016 -0.000650012 -0.000540062 -0.000540058 -0.000650012 -0.00065001 -0.000650016 -0.000650012 -0.00076 -0.00076 -0.000650012 -0.00065001 -0.00076 -0.00076 -0.000320445 -0.000320442 -0.000430078 -0.000430075 -0.000320442 -0.00032044 -0.000430075 -0.000430073 -0.000430078 -0.000430075 -0.000540058 -0.000540055 -0.000430075 -0.000430073 -0.000540055 -0.000540054 -0.00032044 -0.000320438 -0.000430073 -0.000430071 -0.000320438 -0.000320437 -0.000430071 -0.00043007 -0.000430073 -0.000430071 -0.000540054 -0.000540052 -0.000430071 -0.00043007 -0.000540052 -0.000540051 -0.000540058 -0.000540055 -0.00065001 -0.000650008 -0.000540055 -0.000540054 -0.000650008 -0.000650007 -0.00065001 -0.000650008 -0.00076 -0.00076 -0.000650008 -0.000650007 -0.00076 -0.00076 -0.000540054 -0.000540052 -0.000650007 -0.000650007 -0.000540052 -0.000540051 -0.000650007 -0.000650006 -0.000650007 -0.000650007 -0.00076 -0.00076 -0.000650007 -0.000650006 -0.00076 -0.00076 6.55846e-06 6.55866e-06 -3.24628e-05 -3.24625e-05 6.55866e-06 6.55876e-06 -3.24625e-05 -3.24623e-05 -3.24628e-05 -3.24625e-05 -0.000111656 -0.000111656 -3.24625e-05 -3.24623e-05 -0.000111656 -0.000111655 6.55876e-06 6.5588e-06 -3.24623e-05 -3.24623e-05 6.5588e-06 6.55881e-06 -3.24623e-05 -3.24622e-05 -3.24623e-05 -3.24623e-05 -0.000111655 -0.000111655 -3.24623e-05 -3.24622e-05 -0.000111655 -0.000111655 -0.000111656 -0.000111656 -0.000212298 -0.000212298 -0.000111656 -0.000111655 -0.000212298 -0.000212297 -0.000212298 -0.000212298 -0.000320437 -0.000320436 -0.000212298 -0.000212297 -0.000320436 -0.000320436 -0.000111655 -0.000111655 -0.000212297 -0.000212297 -0.000111655 -0.000111655 -0.000212297 -0.000212297 -0.000212297 -0.000212297 -0.000320436 -0.000320436 -0.000212297 -0.000212297 -0.000320436 -0.000320436 6.55881e-06 6.55881e-06 -3.24622e-05 -3.24622e-05 6.55881e-06 6.55881e-06 -3.24622e-05 -3.24622e-05 -3.24622e-05 -3.24622e-05 -0.000111655 -0.000111655 -3.24622e-05 -3.24622e-05 -0.000111655 -0.000111655 6.55881e-06 6.55881e-06 -3.24622e-05 -3.24622e-05 6.55881e-06 6.55881e-06 -3.24622e-05 -3.24622e-05 -3.24622e-05 -3.24622e-05 -0.000111655 -0.000111655 -3.24622e-05 -3.24622e-05 -0.000111655 -0.000111655 -0.000111655 -0.000111655 -0.000212297 -0.000212297 -0.000111655 -0.000111655 -0.000212297 -0.000212297 -0.000212297 -0.000212297 -0.000320436 -0.000320436 -0.000212297 -0.000212297 -0.000320436 -0.000320436 -0.000111655 -0.000111655 -0.000212297 -0.000212297 -0.000111655 -0.000111655 -0.000212297 -0.000212297 -0.000212297 -0.000212297 -0.000320436 -0.000320436 -0.000212297 -0.000212297 -0.000320436 -0.000320436 -0.000320437 -0.000320436 -0.00043007 -0.00043007 -0.000320436 -0.000320436 -0.00043007 -0.000430069 -0.00043007 -0.00043007 -0.000540051 -0.000540051 -0.00043007 -0.000430069 -0.000540051 -0.000540051 -0.000320436 -0.000320436 -0.000430069 -0.000430069 -0.000320436 -0.000320436 -0.000430069 -0.000430069 -0.000430069 -0.000430069 -0.000540051 -0.00054005 -0.000430069 -0.000430069 -0.00054005 -0.00054005 -0.000540051 -0.000540051 -0.000650006 -0.000650006 -0.000540051 -0.000540051 -0.000650006 -0.000650006 -0.000650006 -0.000650006 -0.00076 -0.00076 -0.000650006 -0.000650006 -0.00076 -0.00076 -0.000540051 -0.00054005 -0.000650006 -0.000650005 -0.00054005 -0.00054005 -0.000650005 -0.000650005 -0.000650006 -0.000650005 -0.00076 -0.00076 -0.000650005 -0.000650005 -0.00076 -0.00076 -0.000320436 -0.000320436 -0.000430069 -0.000430069 -0.000320436 -0.000320436 -0.000430069 -0.000430069 -0.000430069 -0.000430069 -0.00054005 -0.00054005 -0.000430069 -0.000430069 -0.00054005 -0.00054005 -0.000320436 -0.000320436 -0.000430069 -0.000430069 -0.000320436 -0.000320436 -0.000430069 -0.000430069 -0.000430069 -0.000430069 -0.00054005 -0.00054005 -0.000430069 -0.000430069 -0.00054005 -0.00054005 -0.00054005 -0.00054005 -0.000650005 -0.000650005 -0.00054005 -0.00054005 -0.000650005 -0.000650005 -0.000650005 -0.000650005 -0.00076 -0.00076 -0.000650005 -0.000650005 -0.00076 -0.00076 -0.00054005 -0.00054005 -0.000650005 -0.000650005 -0.00054005 -0.00054005 -0.000650005 -0.000650005 -0.000650005 -0.000650005 -0.00076 -0.00076 -0.000650005 -0.000650005 -0.00076 -0.00076 1.74793e-10 3.13482e-09 2.0177e-08 1.83817e-08 3.13482e-09 7.18008e-10 1.83817e-08 1.79966e-08 2.0177e-08 1.83817e-08 -6.56296e-08 -6.498e-08 1.83817e-08 1.79966e-08 -6.498e-08 -6.46983e-08 7.18008e-10 6.51272e-11 1.79966e-08 1.79832e-08 6.51272e-11 3.06789e-10 1.79832e-08 1.81324e-08 1.79966e-08 1.79832e-08 -6.46983e-08 -6.46766e-08 1.79832e-08 1.81324e-08 -6.46766e-08 -6.4699e-08 -6.56296e-08 -6.498e-08 2.83715e-08 2.82878e-08 -6.498e-08 -6.46983e-08 2.82878e-08 2.81972e-08 2.83715e-08 2.82878e-08 3.98509e-07 3.9846e-07 2.82878e-08 2.81972e-08 3.9846e-07 3.98451e-07 -6.46983e-08 -6.46766e-08 2.81972e-08 2.8153e-08 -6.46766e-08 -6.4699e-08 2.8153e-08 2.81751e-08 2.81972e-08 2.8153e-08 3.98451e-07 3.98482e-07 2.8153e-08 2.81751e-08 3.98482e-07 3.98492e-07 3.06789e-10 3.94583e-10 1.81324e-08 1.81685e-08 3.94583e-10 3.6644e-10 1.81685e-08 1.81411e-08 1.81324e-08 1.81685e-08 -6.4699e-08 -6.46881e-08 1.81685e-08 1.81411e-08 -6.46881e-08 -6.46896e-08 3.6644e-10 3.52912e-10 1.81411e-08 1.81358e-08 3.52912e-10 3.57512e-10 1.81358e-08 1.814e-08 1.81411e-08 1.81358e-08 -6.46896e-08 -6.46929e-08 1.81358e-08 1.814e-08 -6.46929e-08 -6.46924e-08 -6.4699e-08 -6.46881e-08 2.81751e-08 2.8185e-08 -6.46881e-08 -6.46896e-08 2.8185e-08 2.81803e-08 2.81751e-08 2.8185e-08 3.98492e-07 3.98484e-07 2.8185e-08 2.81803e-08 3.98484e-07 3.98481e-07 -6.46896e-08 -6.46929e-08 2.81803e-08 2.8178e-08 -6.46929e-08 -6.46924e-08 2.8178e-08 2.81792e-08 2.81803e-08 2.8178e-08 3.98481e-07 3.98484e-07 2.8178e-08 2.81792e-08 3.98484e-07 3.98488e-07 3.98509e-07 3.9846e-07 -9.72517e-07 -9.72491e-07 3.9846e-07 3.98451e-07 -9.72491e-07 -9.72473e-07 -9.72517e-07 -9.72491e-07 -1.15393e-06 -1.15393e-06 -9.72491e-07 -9.72473e-07 -1.15393e-06 -1.15394e-06 3.98451e-07 3.98482e-07 -9.72473e-07 -9.72476e-07 3.98482e-07 3.98492e-07 -9.72476e-07 -9.72485e-07 -9.72473e-07 -9.72476e-07 -1.15394e-06 -1.15394e-06 -9.72476e-07 -9.72485e-07 -1.15394e-06 -1.15394e-06 -1.15393e-06 -1.15393e-06 6.82537e-06 6.82537e-06 -1.15393e-06 -1.15394e-06 6.82537e-06 6.82537e-06 6.82537e-06 6.82537e-06 6.55881e-06 6.55881e-06 6.82537e-06 6.82537e-06 6.55881e-06 6.55881e-06 -1.15394e-06 -1.15394e-06 6.82537e-06 6.82537e-06 -1.15394e-06 -1.15394e-06 6.82537e-06 6.82537e-06 6.82537e-06 6.82537e-06 6.55881e-06 6.55881e-06 6.82537e-06 6.82537e-06 6.55881e-06 6.55881e-06 3.98492e-07 3.98484e-07 -9.72485e-07 -9.72487e-07 3.98484e-07 3.98481e-07 -9.72487e-07 -9.72483e-07 -9.72485e-07 -9.72487e-07 -1.15394e-06 -1.15394e-06 -9.72487e-07 -9.72483e-07 -1.15394e-06 -1.15393e-06 3.98481e-07 3.98484e-07 -9.72483e-07 -9.72476e-07 3.98484e-07 3.98488e-07 -9.72476e-07 -9.7246e-07 -9.72483e-07 -9.72476e-07 -1.15393e-06 -1.15391e-06 -9.72476e-07 -9.7246e-07 -1.15391e-06 -1.15387e-06 -1.15394e-06 -1.15394e-06 6.82537e-06 6.82538e-06 -1.15394e-06 -1.15393e-06 6.82538e-06 6.82539e-06 6.82537e-06 6.82538e-06 6.55881e-06 6.55882e-06 6.82538e-06 6.82539e-06 6.55882e-06 6.55886e-06 -1.15393e-06 -1.15391e-06 6.82539e-06 6.82544e-06 -1.15391e-06 -1.15387e-06 6.82544e-06 6.82555e-06 6.82539e-06 6.82544e-06 6.55886e-06 6.55896e-06 6.82544e-06 6.82555e-06 6.55896e-06 6.55916e-06 3.57512e-10 3.59283e-10 1.814e-08 1.81403e-08 3.59283e-10 3.58402e-10 1.81403e-08 1.81394e-08 1.814e-08 1.81403e-08 -6.46924e-08 -6.46922e-08 1.81403e-08 1.81394e-08 -6.46922e-08 -6.46929e-08 3.58402e-10 3.58218e-10 1.81394e-08 1.81389e-08 3.58218e-10 3.5822e-10 1.81389e-08 1.81382e-08 1.81394e-08 1.81389e-08 -6.46929e-08 -6.46937e-08 1.81389e-08 1.81382e-08 -6.46937e-08 -6.46947e-08 -6.46924e-08 -6.46922e-08 2.81792e-08 2.81807e-08 -6.46922e-08 -6.46929e-08 2.81807e-08 2.81827e-08 2.81792e-08 2.81807e-08 3.98488e-07 3.98497e-07 2.81807e-08 2.81827e-08 3.98497e-07 3.98513e-07 -6.46929e-08 -6.46937e-08 2.81827e-08 2.81867e-08 -6.46937e-08 -6.46947e-08 2.81867e-08 2.81931e-08 2.81827e-08 2.81867e-08 3.98513e-07 3.9854e-07 2.81867e-08 2.81931e-08 3.9854e-07 3.98578e-07 3.5822e-10 3.58021e-10 1.81382e-08 1.81372e-08 3.58021e-10 3.57787e-10 1.81372e-08 1.81362e-08 1.81382e-08 1.81372e-08 -6.46947e-08 -6.46957e-08 1.81372e-08 1.81362e-08 -6.46957e-08 -6.46965e-08 3.57787e-10 3.57605e-10 1.81362e-08 1.81355e-08 3.57605e-10 3.57534e-10 1.81355e-08 1.81352e-08 1.81362e-08 1.81355e-08 -6.46965e-08 -6.4697e-08 1.81355e-08 1.81352e-08 -6.4697e-08 -6.46972e-08 -6.46947e-08 -6.46957e-08 2.81931e-08 2.82014e-08 -6.46957e-08 -6.46965e-08 2.82014e-08 2.82101e-08 2.81931e-08 2.82014e-08 3.98578e-07 3.98622e-07 2.82014e-08 2.82101e-08 3.98622e-07 3.98664e-07 -6.46965e-08 -6.4697e-08 2.82101e-08 2.82168e-08 -6.4697e-08 -6.46972e-08 2.82168e-08 2.82193e-08 2.82101e-08 2.82168e-08 3.98664e-07 3.98694e-07 2.82168e-08 2.82193e-08 3.98694e-07 3.98705e-07 3.98488e-07 3.98497e-07 -9.7246e-07 -9.72428e-07 3.98497e-07 3.98513e-07 -9.72428e-07 -9.72368e-07 -9.7246e-07 -9.72428e-07 -1.15387e-06 -1.15378e-06 -9.72428e-07 -9.72368e-07 -1.15378e-06 -1.15363e-06 3.98513e-07 3.9854e-07 -9.72368e-07 -9.72278e-07 3.9854e-07 3.98578e-07 -9.72278e-07 -9.72162e-07 -9.72368e-07 -9.72278e-07 -1.15363e-06 -1.15341e-06 -9.72278e-07 -9.72162e-07 -1.15341e-06 -1.15315e-06 -1.15387e-06 -1.15378e-06 6.82555e-06 6.82574e-06 -1.15378e-06 -1.15363e-06 6.82574e-06 6.82604e-06 6.82555e-06 6.82574e-06 6.55916e-06 6.5595e-06 6.82574e-06 6.82604e-06 6.5595e-06 6.56002e-06 -1.15363e-06 -1.15341e-06 6.82604e-06 6.82645e-06 -1.15341e-06 -1.15315e-06 6.82645e-06 6.82697e-06 6.82604e-06 6.82645e-06 6.56002e-06 6.56073e-06 6.82645e-06 6.82697e-06 6.56073e-06 6.56164e-06 3.98578e-07 3.98622e-07 -9.72162e-07 -9.72035e-07 3.98622e-07 3.98664e-07 -9.72035e-07 -9.71918e-07 -9.72162e-07 -9.72035e-07 -1.15315e-06 -1.15286e-06 -9.72035e-07 -9.71918e-07 -1.15286e-06 -1.1526e-06 3.98664e-07 3.98694e-07 -9.71918e-07 -9.71836e-07 3.98694e-07 3.98705e-07 -9.71836e-07 -9.71806e-07 -9.71918e-07 -9.71836e-07 -1.1526e-06 -1.15241e-06 -9.71836e-07 -9.71806e-07 -1.15241e-06 -1.15234e-06 -1.15315e-06 -1.15286e-06 6.82697e-06 6.82755e-06 -1.15286e-06 -1.1526e-06 6.82755e-06 6.8281e-06 6.82697e-06 6.82755e-06 6.56164e-06 6.56269e-06 6.82755e-06 6.8281e-06 6.56269e-06 6.56371e-06 -1.1526e-06 -1.15241e-06 6.8281e-06 6.82851e-06 -1.15241e-06 -1.15234e-06 6.82851e-06 6.82866e-06 6.8281e-06 6.82851e-06 6.56371e-06 6.56448e-06 6.82851e-06 6.82866e-06 6.56448e-06 6.56478e-06 6.55881e-06 6.55881e-06 -3.24622e-05 -3.24622e-05 6.55881e-06 6.55881e-06 -3.24622e-05 -3.24622e-05 -3.24622e-05 -3.24622e-05 -0.000111655 -0.000111655 -3.24622e-05 -3.24622e-05 -0.000111655 -0.000111655 6.55881e-06 6.55881e-06 -3.24622e-05 -3.24622e-05 6.55881e-06 6.55881e-06 -3.24622e-05 -3.24622e-05 -3.24622e-05 -3.24622e-05 -0.000111655 -0.000111655 -3.24622e-05 -3.24622e-05 -0.000111655 -0.000111655 -0.000111655 -0.000111655 -0.000212297 -0.000212297 -0.000111655 -0.000111655 -0.000212297 -0.000212297 -0.000212297 -0.000212297 -0.000320436 -0.000320436 -0.000212297 -0.000212297 -0.000320436 -0.000320436 -0.000111655 -0.000111655 -0.000212297 -0.000212297 -0.000111655 -0.000111655 -0.000212297 -0.000212297 -0.000212297 -0.000212297 -0.000320436 -0.000320436 -0.000212297 -0.000212297 -0.000320436 -0.000320436 6.55881e-06 6.55882e-06 -3.24622e-05 -3.24622e-05 6.55882e-06 6.55886e-06 -3.24622e-05 -3.24621e-05 -3.24622e-05 -3.24622e-05 -0.000