# vtk DataFile Version 3.0
#This file was generated by the deal.II library on 2022/11/16 at 21:32:53
ASCII
DATASET UNSTRUCTURED_GRID

POINTS 4096 double
0 0.5 0
0.03125 0.5 0
0 0.53125 0
0.03125 0.53125 0
0.03125 0.5 0
0.0625 0.5 0
0.03125 0.53125 0
0.0625 0.53125 0
0 0.53125 0
0.03125 0.53125 0
0 0.5625 0
0.03125 0.5625 0
0.03125 0.53125 0
0.0625 0.53125 0
0.03125 0.5625 0
0.0625 0.5625 0
0.0625 0.5 0
0.09375 0.5 0
0.0625 0.53125 0
0.09375 0.53125 0
0.09375 0.5 0
0.125 0.5 0
0.09375 0.53125 0
0.125 0.53125 0
0.0625 0.53125 0
0.09375 0.53125 0
0.0625 0.5625 0
0.09375 0.5625 0
0.09375 0.53125 0
0.125 0.53125 0
0.09375 0.5625 0
0.125 0.5625 0
0 0.5625 0
0.03125 0.5625 0
0 0.59375 0
0.03125 0.59375 0
0.03125 0.5625 0
0.0625 0.5625 0
0.03125 0.59375 0
0.0625 0.59375 0
0 0.59375 0
0.03125 0.59375 0
0 0.625 0
0.03125 0.625 0
0.03125 0.59375 0
0.0625 0.59375 0
0.03125 0.625 0
0.0625 0.625 0
0.0625 0.5625 0
0.09375 0.5625 0
0.0625 0.59375 0
0.09375 0.59375 0
0.09375 0.5625 0
0.125 0.5625 0
0.09375 0.59375 0
0.125 0.59375 0
0.0625 0.59375 0
0.09375 0.59375 0
0.0625 0.625 0
0.09375 0.625 0
0.09375 0.59375 0
0.125 0.59375 0
0.09375 0.625 0
0.125 0.625 0
0.125 0.5 0
0.15625 0.5 0
0.125 0.53125 0
0.15625 0.53125 0
0.15625 0.5 0
0.1875 0.5 0
0.15625 0.53125 0
0.1875 0.53125 0
0.125 0.53125 0
0.15625 0.53125 0
0.125 0.5625 0
0.15625 0.5625 0
0.15625 0.53125 0
0.1875 0.53125 0
0.15625 0.5625 0
0.1875 0.5625 0
0.1875 0.5 0
0.21875 0.5 0
0.1875 0.53125 0
0.21875 0.53125 0
0.21875 0.5 0
0.25 0.5 0
0.21875 0.53125 0
0.25 0.53125 0
0.1875 0.53125 0
0.21875 0.53125 0
0.1875 0.5625 0
0.21875 0.5625 0
0.21875 0.53125 0
0.25 0.53125 0
0.21875 0.5625 0
0.25 0.5625 0
0.125 0.5625 0
0.15625 0.5625 0
0.125 0.59375 0
0.15625 0.59375 0
0.15625 0.5625 0
0.1875 0.5625 0
0.15625 0.59375 0
0.1875 0.59375 0
0.125 0.59375 0
0.15625 0.59375 0
0.125 0.625 0
0.15625 0.625 0
0.15625 0.59375 0
0.1875 0.59375 0
0.15625 0.625 0
0.1875 0.625 0
0.1875 0.5625 0
0.21875 0.5625 0
0.1875 0.59375 0
0.21875 0.59375 0
0.21875 0.5625 0
0.25 0.5625 0
0.21875 0.59375 0
0.25 0.59375 0
0.1875 0.59375 0
0.21875 0.59375 0
0.1875 0.625 0
0.21875 0.625 0
0.21875 0.59375 0
0.25 0.59375 0
0.21875 0.625 0
0.25 0.625 0
0 0.625 0
0.03125 0.625 0
0 0.65625 0
0.03125 0.65625 0
0.03125 0.625 0
0.0625 0.625 0
0.03125 0.65625 0
0.0625 0.65625 0
0 0.65625 0
0.03125 0.65625 0
0 0.6875 0
0.03125 0.6875 0
0.03125 0.65625 0
0.0625 0.65625 0
0.03125 0.6875 0
0.0625 0.6875 0
0.0625 0.625 0
0.09375 0.625 0
0.0625 0.65625 0
0.09375 0.65625 0
0.09375 0.625 0
0.125 0.625 0
0.09375 0.65625 0
0.125 0.65625 0
0.0625 0.65625 0
0.09375 0.65625 0
0.0625 0.6875 0
0.09375 0.6875 0
0.09375 0.65625 0
0.125 0.65625 0
0.09375 0.6875 0
0.125 0.6875 0
0 0.6875 0
0.03125 0.6875 0
0 0.71875 0
0.03125 0.71875 0
0.03125 0.6875 0
0.0625 0.6875 0
0.03125 0.71875 0
0.0625 0.71875 0
0 0.71875 0
0.03125 0.71875 0
0 0.75 0
0.03125 0.75 0
0.03125 0.71875 0
0.0625 0.71875 0
0.03125 0.75 0
0.0625 0.75 0
0.0625 0.6875 0
0.09375 0.6875 0
0.0625 0.71875 0
0.09375 0.71875 0
0.09375 0.6875 0
0.125 0.6875 0
0.09375 0.71875 0
0.125 0.71875 0
0.0625 0.71875 0
0.09375 0.71875 0
0.0625 0.75 0
0.09375 0.75 0
0.09375 0.71875 0
0.125 0.71875 0
0.09375 0.75 0
0.125 0.75 0
0.125 0.625 0
0.15625 0.625 0
0.125 0.65625 0
0.15625 0.65625 0
0.15625 0.625 0
0.1875 0.625 0
0.15625 0.65625 0
0.1875 0.65625 0
0.125 0.65625 0
0.15625 0.65625 0
0.125 0.6875 0
0.15625 0.6875 0
0.15625 0.65625 0
0.1875 0.65625 0
0.15625 0.6875 0
0.1875 0.6875 0
0.1875 0.625 0
0.21875 0.625 0
0.1875 0.65625 0
0.21875 0.65625 0
0.21875 0.625 0
0.25 0.625 0
0.21875 0.65625 0
0.25 0.65625 0
0.1875 0.65625 0
0.21875 0.65625 0
0.1875 0.6875 0
0.21875 0.6875 0
0.21875 0.65625 0
0.25 0.65625 0
0.21875 0.6875 0
0.25 0.6875 0
0.125 0.6875 0
0.15625 0.6875 0
0.125 0.71875 0
0.15625 0.71875 0
0.15625 0.6875 0
0.1875 0.6875 0
0.15625 0.71875 0
0.1875 0.71875 0
0.125 0.71875 0
0.15625 0.71875 0
0.125 0.75 0
0.15625 0.75 0
0.15625 0.71875 0
0.1875 0.71875 0
0.15625 0.75 0
0.1875 0.75 0
0.1875 0.6875 0
0.21875 0.6875 0
0.1875 0.71875 0
0.21875 0.71875 0
0.21875 0.6875 0
0.25 0.6875 0
0.21875 0.71875 0
0.25 0.71875 0
0.1875 0.71875 0
0.21875 0.71875 0
0.1875 0.75 0
0.21875 0.75 0
0.21875 0.71875 0
0.25 0.71875 0
0.21875 0.75 0
0.25 0.75 0
0.25 0.5 0
0.28125 0.5 0
0.25 0.53125 0
0.28125 0.53125 0
0.28125 0.5 0
0.3125 0.5 0
0.28125 0.53125 0
0.3125 0.53125 0
0.25 0.53125 0
0.28125 0.53125 0
0.25 0.5625 0
0.28125 0.5625 0
0.28125 0.53125 0
0.3125 0.53125 0
0.28125 0.5625 0
0.3125 0.5625 0
0.3125 0.5 0
0.34375 0.5 0
0.3125 0.53125 0
0.34375 0.53125 0
0.34375 0.5 0
0.375 0.5 0
0.34375 0.53125 0
0.375 0.53125 0
0.3125 0.53125 0
0.34375 0.53125 0
0.3125 0.5625 0
0.34375 0.5625 0
0.34375 0.53125 0
0.375 0.53125 0
0.34375 0.5625 0
0.375 0.5625 0
0.25 0.5625 0
0.28125 0.5625 0
0.25 0.59375 0
0.28125 0.59375 0
0.28125 0.5625 0
0.3125 0.5625 0
0.28125 0.59375 0
0.3125 0.59375 0
0.25 0.59375 0
0.28125 0.59375 0
0.25 0.625 0
0.28125 0.625 0
0.28125 0.59375 0
0.3125 0.59375 0
0.28125 0.625 0
0.3125 0.625 0
0.3125 0.5625 0
0.34375 0.5625 0
0.3125 0.59375 0
0.34375 0.59375 0
0.34375 0.5625 0
0.375 0.5625 0
0.34375 0.59375 0
0.375 0.59375 0
0.3125 0.59375 0
0.34375 0.59375 0
0.3125 0.625 0
0.34375 0.625 0
0.34375 0.59375 0
0.375 0.59375 0
0.34375 0.625 0
0.375 0.625 0
0.375 0.5 0
0.40625 0.5 0
0.375 0.53125 0
0.40625 0.53125 0
0.40625 0.5 0
0.4375 0.5 0
0.40625 0.53125 0
0.4375 0.53125 0
0.375 0.53125 0
0.40625 0.53125 0
0.375 0.5625 0
0.40625 0.5625 0
0.40625 0.53125 0
0.4375 0.53125 0
0.40625 0.5625 0
0.4375 0.5625 0
0.4375 0.5 0
0.46875 0.5 0
0.4375 0.53125 0
0.46875 0.53125 0
0.46875 0.5 0
0.5 0.5 0
0.46875 0.53125 0
0.5 0.53125 0
0.4375 0.53125 0
0.46875 0.53125 0
0.4375 0.5625 0
0.46875 0.5625 0
0.46875 0.53125 0
0.5 0.53125 0
0.46875 0.5625 0
0.5 0.5625 0
0.375 0.5625 0
0.40625 0.5625 0
0.375 0.59375 0
0.40625 0.59375 0
0.40625 0.5625 0
0.4375 0.5625 0
0.40625 0.59375 0
0.4375 0.59375 0
0.375 0.59375 0
0.40625 0.59375 0
0.375 0.625 0
0.40625 0.625 0
0.40625 0.59375 0
0.4375 0.59375 0
0.40625 0.625 0
0.4375 0.625 0
0.4375 0.5625 0
0.46875 0.5625 0
0.4375 0.59375 0
0.46875 0.59375 0
0.46875 0.5625 0
0.5 0.5625 0
0.46875 0.59375 0
0.5 0.59375 0
0.4375 0.59375 0
0.46875 0.59375 0
0.4375 0.625 0
0.46875 0.625 0
0.46875 0.59375 0
0.5 0.59375 0
0.46875 0.625 0
0.5 0.625 0
0.25 0.625 0
0.28125 0.625 0
0.25 0.65625 0
0.28125 0.65625 0
0.28125 0.625 0
0.3125 0.625 0
0.28125 0.65625 0
0.3125 0.65625 0
0.25 0.65625 0
0.28125 0.65625 0
0.25 0.6875 0
0.28125 0.6875 0
0.28125 0.65625 0
0.3125 0.65625 0
0.28125 0.6875 0
0.3125 0.6875 0
0.3125 0.625 0
0.34375 0.625 0
0.3125 0.65625 0
0.34375 0.65625 0
0.34375 0.625 0
0.375 0.625 0
0.34375 0.65625 0
0.375 0.65625 0
0.3125 0.65625 0
0.34375 0.65625 0
0.3125 0.6875 0
0.34375 0.6875 0
0.34375 0.65625 0
0.375 0.65625 0
0.34375 0.6875 0
0.375 0.6875 0
0.25 0.6875 0
0.28125 0.6875 0
0.25 0.71875 0
0.28125 0.71875 0
0.28125 0.6875 0
0.3125 0.6875 0
0.28125 0.71875 0
0.3125 0.71875 0
0.25 0.71875 0
0.28125 0.71875 0
0.25 0.75 0
0.28125 0.75 0
0.28125 0.71875 0
0.3125 0.71875 0
0.28125 0.75 0
0.3125 0.75 0
0.3125 0.6875 0
0.34375 0.6875 0
0.3125 0.71875 0
0.34375 0.71875 0
0.34375 0.6875 0
0.375 0.6875 0
0.34375 0.71875 0
0.375 0.71875 0
0.3125 0.71875 0
0.34375 0.71875 0
0.3125 0.75 0
0.34375 0.75 0
0.34375 0.71875 0
0.375 0.71875 0
0.34375 0.75 0
0.375 0.75 0
0.375 0.625 0
0.40625 0.625 0
0.375 0.65625 0
0.40625 0.65625 0
0.40625 0.625 0
0.4375 0.625 0
0.40625 0.65625 0
0.4375 0.65625 0
0.375 0.65625 0
0.40625 0.65625 0
0.375 0.6875 0
0.40625 0.6875 0
0.40625 0.65625 0
0.4375 0.65625 0
0.40625 0.6875 0
0.4375 0.6875 0
0.4375 0.625 0
0.46875 0.625 0
0.4375 0.65625 0
0.46875 0.65625 0
0.46875 0.625 0
0.5 0.625 0
0.46875 0.65625 0
0.5 0.65625 0
0.4375 0.65625 0
0.46875 0.65625 0
0.4375 0.6875 0
0.46875 0.6875 0
0.46875 0.65625 0
0.5 0.65625 0
0.46875 0.6875 0
0.5 0.6875 0
0.375 0.6875 0
0.40625 0.6875 0
0.375 0.71875 0
0.40625 0.71875 0
0.40625 0.6875 0
0.4375 0.6875 0
0.40625 0.71875 0
0.4375 0.71875 0
0.375 0.71875 0
0.40625 0.71875 0
0.375 0.75 0
0.40625 0.75 0
0.40625 0.71875 0
0.4375 0.71875 0
0.40625 0.75 0
0.4375 0.75 0
0.4375 0.6875 0
0.46875 0.6875 0
0.4375 0.71875 0
0.46875 0.71875 0
0.46875 0.6875 0
0.5 0.6875 0
0.46875 0.71875 0
0.5 0.71875 0
0.4375 0.71875 0
0.46875 0.71875 0
0.4375 0.75 0
0.46875 0.75 0
0.46875 0.71875 0
0.5 0.71875 0
0.46875 0.75 0
0.5 0.75 0
0 0.75 0
0.03125 0.75 0
0 0.78125 0
0.03125 0.78125 0
0.03125 0.75 0
0.0625 0.75 0
0.03125 0.78125 0
0.0625 0.78125 0
0 0.78125 0
0.03125 0.78125 0
0 0.8125 0
0.03125 0.8125 0
0.03125 0.78125 0
0.0625 0.78125 0
0.03125 0.8125 0
0.0625 0.8125 0
0.0625 0.75 0
0.09375 0.75 0
0.0625 0.78125 0
0.09375 0.78125 0
0.09375 0.75 0
0.125 0.75 0
0.09375 0.78125 0
0.125 0.78125 0
0.0625 0.78125 0
0.09375 0.78125 0
0.0625 0.8125 0
0.09375 0.8125 0
0.09375 0.78125 0
0.125 0.78125 0
0.09375 0.8125 0
0.125 0.8125 0
0 0.8125 0
0.03125 0.8125 0
0 0.84375 0
0.03125 0.84375 0
0.03125 0.8125 0
0.0625 0.8125 0
0.03125 0.84375 0
0.0625 0.84375 0
0 0.84375 0
0.03125 0.84375 0
0 0.875 0
0.03125 0.875 0
0.03125 0.84375 0
0.0625 0.84375 0
0.03125 0.875 0
0.0625 0.875 0
0.0625 0.8125 0
0.09375 0.8125 0
0.0625 0.84375 0
0.09375 0.84375 0
0.09375 0.8125 0
0.125 0.8125 0
0.09375 0.84375 0
0.125 0.84375 0
0.0625 0.84375 0
0.09375 0.84375 0
0.0625 0.875 0
0.09375 0.875 0
0.09375 0.84375 0
0.125 0.84375 0
0.09375 0.875 0
0.125 0.875 0
0.125 0.75 0
0.15625 0.75 0
0.125 0.78125 0
0.15625 0.78125 0
0.15625 0.75 0
0.1875 0.75 0
0.15625 0.78125 0
0.1875 0.78125 0
0.125 0.78125 0
0.15625 0.78125 0
0.125 0.8125 0
0.15625 0.8125 0
0.15625 0.78125 0
0.1875 0.78125 0
0.15625 0.8125 0
0.1875 0.8125 0
0.1875 0.75 0
0.21875 0.75 0
0.1875 0.78125 0
0.21875 0.78125 0
0.21875 0.75 0
0.25 0.75 0
0.21875 0.78125 0
0.25 0.78125 0
0.1875 0.78125 0
0.21875 0.78125 0
0.1875 0.8125 0
0.21875 0.8125 0
0.21875 0.78125 0
0.25 0.78125 0
0.21875 0.8125 0
0.25 0.8125 0
0.125 0.8125 0
0.15625 0.8125 0
0.125 0.84375 0
0.15625 0.84375 0
0.15625 0.8125 0
[...]
POINT_DATA 4096
SCALARS x_dis double 1
LOOKUP_TABLE default
-0.000220617 -0.000220613 -0.000323709 -0.000323702 -0.000220613 -0.000220608 -0.000323702 -0.000323696 -0.000323709 -0.000323702 -0.000431353 -0.000431344 -0.000323702 -0.000323696 -0.000431344 -0.000431335 -0.000220608 -0.000220603 -0.000323696 -0.000323691 -0.000220603 -0.000220598 -0.000323691 -0.000323688 -0.000323696 -0.000323691 -0.000431335 -0.00043133 -0.000323691 -0.000323688 -0.00043133 -0.000431329 -0.000431353 -0.000431344 -0.00054064 -0.000540629 -0.000431344 -0.000431335 -0.000540629 -0.000540618 -0.00054064 -0.000540629 -0.000650426 -0.000650412 -0.000540629 -0.000540618 -0.000650412 -0.0006504 -0.000431335 -0.00043133 -0.000540618 -0.000540612 -0.00043133 -0.000431329 -0.000540612 -0.000540611 -0.000540618 -0.000540612 -0.0006504 -0.000650391 -0.000540612 -0.000540611 -0.000650391 -0.000650389 -0.000220598 -0.000220594 -0.000323688 -0.000323685 -0.000220594 -0.000220589 -0.000323685 -0.000323676 -0.000323688 -0.000323685 -0.000431329 -0.000431327 -0.000323685 -0.000323676 -0.000431327 -0.000431316 -0.000220589 -0.000220581 -0.000323676 -0.000323654 -0.000220581 -0.000220572 -0.000323654 -0.000323606 -0.000323676 -0.000323654 -0.000431316 -0.000431284 -0.000323654 -0.000323606 -0.000431284 -0.000431211 -0.000431329 -0.000431327 -0.000540611 -0.000540611 -0.000431327 -0.000431316 -0.000540611 -0.000540601 -0.000540611 -0.000540611 -0.000650389 -0.000650391 -0.000540611 -0.000540601 -0.000650391 -0.000650384 -0.000431316 -0.000431284 -0.000540601 -0.000540565 -0.000431284 -0.000431211 -0.000540565 -0.000540485 -0.000540601 -0.000540565 -0.000650384 -0.000650351 -0.000540565 -0.000540485 -0.000650351 -0.000650277 -0.000650426 -0.000650412 -0.00076034 -0.000760325 -0.000650412 -0.0006504 -0.000760325 -0.00076031 -0.00076034 -0.000760325 -0.000870286 -0.000870269 -0.000760325 -0.00076031 -0.000870269 -0.000870253 -0.0006504 -0.000650391 -0.00076031 -0.000760299 -0.000650391 -0.000650389 -0.000760299 -0.000760295 -0.00076031 -0.000760299 -0.000870253 -0.00087024 -0.000760299 -0.000760295 -0.00087024 -0.000870232 -0.000870286 -0.000870269 -0.000980242 -0.000980224 -0.000870269 -0.000870253 -0.000980224 -0.000980206 -0.000980242 -0.000980224 -0.0010902 -0.00109018 -0.000980224 -0.000980206 -0.00109018 -0.00109017 -0.000870253 -0.00087024 -0.000980206 -0.00098019 -0.00087024 -0.000870232 -0.00098019 -0.000980179 -0.000980206 -0.00098019 -0.00109017 -0.00109015 -0.00098019 -0.000980179 -0.00109015 -0.00109013 -0.000650389 -0.000650391 -0.000760295 -0.000760296 -0.000650391 -0.000650384 -0.000760296 -0.000760294 -0.000760295 -0.000760296 -0.000870232 -0.000870231 -0.000760296 -0.000760294 -0.000870231 -0.000870232 -0.000650384 -0.000650351 -0.000760294 -0.000760271 -0.000650351 -0.000650277 -0.000760271 -0.00076021 -0.000760294 -0.000760271 -0.000870232 -0.00087022 -0.000760271 -0.00076021 -0.00087022 -0.000870181 -0.000870232 -0.000870231 -0.000980179 -0.000980174 -0.000870231 -0.000870232 -0.000980174 -0.000980175 -0.000980179 -0.000980174 -0.00109013 -0.00109012 -0.000980174 -0.000980175 -0.00109012 -0.00109012 -0.000870232 -0.00087022 -0.000980175 -0.000980172 -0.00087022 -0.000870181 -0.000980172 -0.000980154 -0.000980175 -0.000980172 -0.00109012 -0.00109012 -0.000980172 -0.000980154 -0.00109012 -0.00109012 -0.000220572 -0.000220561 -0.000323606 -0.000323522 -0.000220561 -0.000220556 -0.000323522 -0.000323433 -0.000323606 -0.000323522 -0.000431211 -0.00043108 -0.000323522 -0.000323433 -0.00043108 -0.000430924 -0.000220556 -0.000220563 -0.000323433 -0.000323493 -0.000220563 -0.000220586 -0.000323493 -0.00032407 -0.000323433 -0.000323493 -0.000430924 -0.000430938 -0.000323493 -0.00032407 -0.000430938 -0.000431589 -0.000431211 -0.00043108 -0.000540485 -0.000540344 -0.00043108 -0.000430924 -0.000540344 -0.000540161 -0.000540485 -0.000540344 -0.000650277 -0.00065015 -0.000540344 -0.000540161 -0.00065015 -0.000649983 -0.000430924 -0.000430938 -0.000540161 -0.00054008 -0.000430938 -0.000431589 -0.00054008 -0.00054042 -0.000540161 -0.00054008 -0.000649983 -0.000649852 -0.00054008 -0.00054042 -0.000649852 -0.000649899 -0.000220586 -0.000220607 -0.00032407 -0.000325871 -0.000220607 -0.000220589 -0.000325871 -0.000330328 -0.00032407 -0.000325871 -0.000431589 -0.00043368 -0.000325871 -0.000330328 -0.00043368 -0.000438309 -0.000220589 -0.000220415 -0.000330328 -0.000340563 -0.000220415 -0.000220148 -0.000340563 -0.000366308 -0.000330328 -0.000340563 -0.000438309 -0.00044683 -0.000340563 -0.000366308 -0.00044683 -0.000454238 -0.000431589 -0.00043368 -0.00054042 -0.000541595 -0.00043368 -0.000438309 -0.000541595 -0.000543853 -0.00054042 -0.000541595 -0.000649899 -0.000650205 -0.000541595 -0.000543853 -0.000650205 -0.000650476 -0.000438309 -0.00044683 -0.000543853 -0.000546082 -0.00044683 -0.000454238 -0.000546082 -0.000547199 -0.000543853 -0.000546082 -0.000650476 -0.000650111 -0.000546082 -0.000547199 -0.000650111 -0.000648451 -0.000650277 -0.00065015 -0.00076021 -0.000760105 -0.00065015 -0.000649983 -0.000760105 -0.000759965 -0.00076021 -0.000760105 -0.000870181 -0.000870102 -0.000760105 -0.000759965 -0.000870102 -0.000869985 -0.000649983 -0.000649852 -0.000759965 -0.000759836 -0.000649852 -0.000649899 -0.000759836 -0.000759786 -0.000759965 -0.000759836 -0.000869985 -0.000869861 -0.000759836 -0.000759786 -0.000869861 -0.000869787 -0.000870181 -0.000870102 -0.000980154 -0.000980108 -0.000870102 -0.000869985 -0.000980108 -0.000980025 -0.000980154 -0.000980108 -0.00109012 -0.0010901 -0.000980108 -0.000980025 -0.0010901 -0.00109006 -0.000869985 -0.000869861 -0.000980025 -0.000979912 -0.000869861 -0.000869787 -0.000979912 -0.000979808 -0.000980025 -0.000979912 -0.00109006 -0.00108999 -0.000979912 -0.000979808 -0.00108999 -0.0010899 -0.000649899 -0.000650205 -0.000759786 -0.000759794 -0.000650205 -0.000650476 -0.000759794 -0.000759659 -0.000759786 -0.000759794 -0.000869787 -0.000869802 -0.000759794 -0.000759659 -0.000869802 -0.000869859 -0.000650476 -0.000650111 -0.000759659 -0.00075903 -0.000650111 -0.000648451 -0.00075903 -0.000757737 -0.000759659 -0.00075903 -0.000869859 -0.000869855 -0.00075903 -0.000757737 -0.000869855 -0.000869732 -0.000869787 -0.000869802 -0.000979808 -0.000979777 -0.000869802 -0.000869859 -0.000979777 -0.000979873 -0.000979808 -0.000979777 -0.0010899 -0.00108981 -0.000979777 -0.000979873 -0.00108981 -0.00108978 -0.000869859 -0.000869855 -0.000979873 -0.000980114 -0.000869855 -0.000869732 -0.000980114 -0.000980485 -0.000979873 -0.000980114 -0.00108978 -0.00108986 -0.000980114 -0.000980485 -0.00108986 -0.00109003 -0.0010902 -0.00109018 -0.00120017 -0.00120015 -0.00109018 -0.00109017 -0.00120015 -0.00120013 -0.00120017 -0.00120015 -0.00131015 -0.00131012 -0.00120015 -0.00120013 -0.00131012 -0.0013101 -0.00109017 -0.00109015 -0.00120013 -0.00120011 -0.00109015 -0.00109013 -0.00120011 -0.00120009 -0.00120013 -0.00120011 -0.0013101 -0.00131008 -0.00120011 -0.00120009 -0.00131008 -0.00131006 -0.00131015 -0.00131012 -0.00142012 -0.0014201 -0.00131012 -0.0013101 -0.0014201 -0.00142008 -0.00142012 -0.0014201 -0.00153011 -0.00153008 -0.0014201 -0.00142008 -0.00153008 -0.00153006 -0.0013101 -0.00131008 -0.00142008 -0.00142005 -0.00131008 -0.00131006 -0.00142005 -0.00142004 -0.00142008 -0.00142005 -0.00153006 -0.00153004 -0.00142005 -0.00142004 -0.00153004 -0.00153002 -0.00109013 -0.00109012 -0.00120009 -0.00120008 -0.00109012 -0.00109012 -0.00120008 -0.00120008 -0.00120009 -0.00120008 -0.00131006 -0.00131005 -0.00120008 -0.00120008 -0.00131005 -0.00131004 -0.00109012 -0.00109012 -0.00120008 -0.00120007 -0.00109012 -0.00109012 -0.00120007 -0.00120007 -0.00120008 -0.00120007 -0.00131004 -0.00131003 -0.00120007 -0.00120007 -0.00131003 -0.00131003 -0.00131006 -0.00131005 -0.00142004 -0.00142002 -0.00131005 -0.00131004 -0.00142002 -0.00142001 -0.00142004 -0.00142002 -0.00153002 -0.00153 -0.00142002 -0.00142001 -0.00153 -0.00152999 -0.00131004 -0.00131003 -0.00142001 -0.00142 -0.00131003 -0.00131003 -0.00142 -0.00142 -0.00142001 -0.00142 -0.00152999 -0.00152998 -0.00142 -0.00142 -0.00152998 -0.00152997 -0.00153011 -0.00153008 -0.0016401 -0.00164007 -0.00153008 -0.00153006 -0.00164007 -0.00164004 -0.0016401 -0.00164007 -0.00175008 -0.00175005 -0.00164007 -0.00164004 -0.00175005 -0.00175003 -0.00153006 -0.00153004 -0.00164004 -0.00164002 -0.00153004 -0.00153002 -0.00164002 -0.00164 -0.00164004 -0.00164002 -0.00175003 -0.00175001 -0.00164002 -0.00164 -0.00175001 -0.00175 -0.00175008 -0.00175005 -0.00186007 -0.00186003 -0.00175005 -0.00175003 -0.00186003 -0.00186001 -0.00186007 -0.00186003 -0.00197 -0.00197 -0.00186003 -0.00186001 -0.00197 -0.00197 -0.00175003 -0.00175001 -0.00186001 -0.00186 -0.00175001 -0.00175 -0.00186 -0.00186 -0.00186001 -0.00186 -0.00197 -0.00197 -0.00186 -0.00186 -0.00197 -0.00197 -0.00153002 -0.00153 -0.00164 -0.00163999 -0.00153 -0.00152999 -0.00163999 -0.00163998 -0.00164 -0.00163999 -0.00175 -0.00174999 -0.00163999 -0.00163998 -0.00174999 -0.00174998 -0.00152999 -0.00152998 -0.00163998 -0.00163997 -0.00152998 -0.00152997 -0.00163997 -0.00163996 -0.00163998 -0.00163997 -0.00174998 -0.00174997 -0.00163997 -0.00163996 -0.00174997 -0.00174997 -0.00175 -0.00174999 -0.00186 -0.00185999 -0.00174999 -0.00174998 -0.00185999 -0.00185999 -0.00186 -0.00185999 -0.00197 -0.00197 -0.00185999 -0.00185999 -0.00197 -0.00197 -0.00174998 -0.00174997 -0.00185999 -0.00185998 -0.00174997 -0.00174997 -0.00185998 -0.00185998 -0.00185999 -0.00185998 -0.00197 -0.00197 -0.00185998 -0.00185998 -0.00197 -0.00197 -0.00109012 -0.0010901 -0.00120007 -0.00120007 -0.0010901 -0.00109006 -0.00120007 -0.00120006 -0.00120007 -0.00120007 -0.00131003 -0.00131003 -0.00120007 -0.00120006 -0.00131003 -0.00131003 -0.00109006 -0.00108999 -0.00120006 -0.00120004 -0.00108999 -0.0010899 -0.00120004 -0.0012 -0.00120006 -0.00120004 -0.00131003 -0.00131002 -0.00120004 -0.0012 -0.00131002 -0.00131002 -0.00131003 -0.00131003 -0.00142 -0.00141999 -0.00131003 -0.00131003 -0.00141999 -0.00141999 -0.00142 -0.00141999 -0.00152997 -0.00152997 -0.00141999 -0.00141999 -0.00152997 -0.00152997 -0.00131003 -0.00131002 -0.00141999 -0.00141999 -0.00131002 -0.00131002 -0.00141999 -0.00141999 -0.00141999 -0.00141999 -0.00152997 -0.00152997 -0.00141999 -0.00141999 -0.00152997 -0.00152996 -0.0010899 -0.00108981 -0.0012 -0.00119995 -0.00108981 -0.00108978 -0.00119995 -0.00119989 -0.0012 -0.00119995 -0.00131002 -0.00131001 -0.00119995 -0.00119989 -0.00131001 -0.00131 -0.00108978 -0.00108986 -0.00119989 -0.00119984 -0.00108986 -0.00109003 -0.00119984 -0.00119981 -0.00119989 -0.00119984 -0.00131 -0.00130998 -0.00119984 -0.00119981 -0.00130998 -0.00130995 -0.00131002 -0.00131001 -0.00141999 -0.00141999 -0.00131001 -0.00131 -0.00141999 -0.00141999 -0.00141999 -0.00141999 -0.00152996 -0.00152996 -0.00141999 -0.00141999 -0.00152996 -0.00152995 -0.00131 -0.00130998 -0.00141999 -0.00141999 -0.00130998 -0.00130995 -0.00141999 -0.00141999 -0.00141999 -0.00141999 -0.00152995 -0.00152994 -0.00141999 -0.00141999 -0.00152994 -0.00152993 -0.00152997 -0.00152997 -0.00163996 -0.00163996 -0.00152997 -0.00152997 -0.00163996 -0.00163996 -0.00163996 -0.00163996 -0.00174997 -0.00174996 -0.00163996 -0.00163996 -0.00174996 -0.00174996 -0.00152997 -0.00152997 -0.00163996 -0.00163995 -0.00152997 -0.00152996 -0.00163995 -0.00163995 -0.00163996 -0.00163995 -0.00174996 -0.00174996 -0.00163995 -0.00163995 -0.00174996 -0.00174995 -0.00174997 -0.00174996 -0.00185998 -0.00185998 -0.00174996 -0.00174996 -0.00185998 -0.00185998 -0.00185998 -0.00185998 -0.00197 -0.00197 -0.00185998 -0.00185998 -0.00197 -0.00197 -0.00174996 -0.00174996 -0.00185998 -0.00185997 -0.00174996 -0.00174995 -0.00185997 -0.00185997 -0.00185998 -0.00185997 -0.00197 -0.00197 -0.00185997 -0.00185997 -0.00197 -0.00197 -0.00152996 -0.00152996 -0.00163995 -0.00163995 -0.00152996 -0.00152995 -0.00163995 -0.00163995 -0.00163995 -0.00163995 -0.00174995 -0.00174995 -0.00163995 -0.00163995 -0.00174995 -0.00174995 -0.00152995 -0.00152994 -0.00163995 -0.00163994 -0.00152994 -0.00152993 -0.00163994 -0.00163993 -0.00163995 -0.00163994 -0.00174995 -0.00174995 -0.00163994 -0.00163993 -0.00174995 -0.00174995 -0.00174995 -0.00174995 -0.00185997 -0.00185997 -0.00174995 -0.00174995 -0.00185997 -0.00185997 -0.00185997 -0.00185997 -0.00197 -0.00197 -0.00185997 -0.00185997 -0.00197 -0.00197 -0.00174995 -0.00174995 -0.00185997 -0.00185997 -0.00174995 -0.00174995 -0.00185997 -0.00185997 -0.00185997 -0.00185997 -0.00197 -0.00197 -0.00185997 -0.00185997 -0.00197 -0.00197 -0.000220148 -0.000332504 -0.000366308 -0.000383026 -0.000332504 -0.000388562 -0.000383026 -0.000409175 -0.000366308 -0.000383026 -0.000454238 -0.000461093 -0.000383026 -0.000409175 -0.000461093 -0.000466588 -0.000388562 -0.000416987 -0.000409175 -0.000429917 -0.000416987 -0.000431379 -0.000429917 -0.000443066 -0.000409175 -0.000429917 -0.000466588 -0.000474449 -0.000429917 -0.000443066 -0.000474449 -0.000481201 -0.000454238 -0.000461093 -0.000547199 -0.000546365 -0.000461093 -0.000466588 -0.000546365 -0.00054565 -0.000547199 -0.000546365 -0.000648451 -0.000645819 -0.000546365 -0.00054565 -0.000645819 -0.000643229 -0.000466588 -0.000474449 -0.00054565 -0.000546102 -0.000474449 -0.000481201 -0.000546102 -0.000547743 -0.00054565 -0.000546102 -0.000643229 -0.000641801 -0.000546102 -0.000547743 -0.000641801 -0.000641578 -0.000431379 -0.000438353 -0.000443066 -0.000450089 -0.000438353 -0.000441577 -0.000450089 -0.000452917 -0.000443066 -0.000450089 -0.000481201 -0.000485362 -0.000450089 -0.000452917 -0.000485362 -0.000487007 -0.000441577 -0.000442724 -0.000452917 -0.000453313 -0.000442724 -0.000442559 -0.000453313 -0.000452674 -0.000452917 -0.000453313 -0.000487007 -0.000487006 -0.000453313 -0.000452674 -0.000487006 -0.000486371 -0.000481201 -0.000485362 -0.000547743 -0.000549224 -0.000485362 -0.000487007 -0.000549224 -0.00054986 -0.000547743 -0.000549224 -0.000641578 -0.000641935 -0.000549224 -0.00054986 -0.000641935 -0.000642177 -0.000487007 -0.000487006 -0.00054986 -0.000549735 -0.000487006 -0.000486371 -0.000549735 -0.000549293 -0.00054986 -0.000549735 -0.000642177 -0.000642083 -0.000549735 -0.000549293 -0.000642083 -0.000641791 -0.000648451 -0.000645819 -0.000757737 -0.000756028 -0.000645819 -0.000643229 -0.000756028 -0.000754548 -0.000757737 -0.000756028 -0.000869732 -0.000869592 -0.000756028 -0.000754548 -0.000869592 -0.00086962 -0.000643229 -0.000641801 -0.000754548 -0.000753798 -0.000641801 -0.000641578 -0.000753798 -0.000753785 -0.000754548 -0.000753798 -0.00086962 -0.000869904 -0.000753798 -0.000753785 -0.000869904 -0.000870309 -0.000869732 -0.000869592 -0.000980485 -0.000980955 -0.000869592 -0.00086962 -0.000980955 -0.00098147 -0.000980485 -0.000980955 -0.00109003 -0.00109027 -0.000980955 -0.00098147 -0.00109027 -0.00109048 -0.00086962 -0.000869904 -0.00098147 -0.000981929 -0.000869904 -0.000870309 -0.000981929 -0.00098221 -0.00098147 -0.000981929 -0.00109048 -0.0010906 -0.000981929 -0.00098221 -0.0010906 -0.00109058 -0.000641578 -0.000641935 -0.000753785 -0.000754072 -0.000641935 -0.000642177 -0.000754072 -0.000754234 -0.000753785 -0.000754072 -0.000870309 -0.000870591 -0.000754072 -0.000754234 -0.000870591 -0.000870613 -0.000642177 -0.000642083 -0.000754234 -0.000754131 -0.000642083 -0.000641791 -0.000754131 -0.000753879 -0.000754234 -0.000754131 -0.000870613 -0.000870431 -0.000754131 -0.000753879 -0.000870431 -0.000870199 -0.000870309 -0.000870591 -0.00098221 -0.000982253 -0.000870591 -0.000870613 -0.000982253 -0.000982113 -0.00098221 -0.000982253 -0.00109058 -0.00109045 -0.000982253 -0.000982113 -0.00109045 -0.00109031 -0.000870613 -0.000870431 -0.000982113 -0.000981916 -0.000870431 -0.000870199 -0.000981916 -0.000981765 -0.000982113 -0.000981916 -0.00109031 -0.0010902 -0.000981916 -0.000981765 -0.0010902 -0.00109015 -0.000442559 -0.00044179 -0.000452674 -0.000451896 -0.00044179 -0.000441101 -0.000451896 -0.000451382 -0.000452674 -0.000451896 -0.000486371 -0.000485772 -0.000451896 -0.000451382 -0.000485772 -0.000485431 -0.000441101 -0.000440792 -0.000451382 -0.000451189 -0.000440792 -0.000440774 -0.000451189 -0.000451205 -0.000451382 -0.000451189 -0.000485431 -0.000485312 -0.000451189 -0.000451205 -0.000485312 -0.000485317 -0.000486371 -0.000485772 -0.000549293 -0.000548891 -0.000485772 -0.000485431 -0.000548891 -0.000548646 -0.000549293 -0.000548891 -0.000641791 -0.000641494 -0.000548891 -0.000548646 -0.000641494 -0.000641291 -0.000485431 -0.000485312 -0.000548646 -0.00054854 -0.000485312 -0.000485317 -0.00054854 -0.000548526 -0.000548646 -0.00054854 -0.000641291 -0.000641199 -0.00054854 -0.000548526 -0.000641199 -0.000641194 -0.000440774 -0.000440852 -0.000451205 -0.00045128 -0.000440852 -0.000440914 -0.00045128 -0.000451328 -0.000451205 -0.00045128 -0.000485317 -0.000485359 -0.00045128 -0.000451328 -0.000485359 -0.00048539 -0.000440914 -0.000440937 -0.000451328 -0.000451337 -0.000440937 -0.000440939 -0.000451337 -0.000451334 -0.000451328 -0.000451337 -0.00048539 -0.000485399 -0.000451337 -0.000451334 -0.000485399 -0.000485397 -0.000485317 -0.000485359 -0.000548526 -0.000548554 -0.000485359 -0.00048539 -0.000548554 -0.000548582 -0.000548526 -0.000548554 -0.000641194 -0.000641225 -0.000548554 -0.000548582 -0.000641225 -0.000641249 -0.00048539 -0.000485399 -0.000548582 -0.000548592 -0.000485399 -0.000485397 -0.000548592 -0.000548588 -0.000548582 -0.000548592 -0.000641249 -0.000641252 -0.000548592 -0.000548588 -0.000641252 -0.000641242 -0.000641791 -0.000641494 -0.000753879 -0.000753635 -0.000641494 -0.000641291 -0.000753635 -0.000753483 -0.000753879 -0.000753635 -0.000870199 -0.000870029 -0.000753635 -0.000753483 -0.000870029 -0.000869953 -0.000641291 -0.000641199 -0.000753483 -0.000753434 -0.000641199 -0.000641194 -0.000753434 -0.00075345 -0.000753483 -0.000753434 -0.000869953 -0.000869949 -0.000753434 -0.00075345 -0.000869949 -0.000869975 -0.000870199 -0.000870029 -0.000981765 -0.00098169 -0.000870029 -0.000869953 -0.00098169 -0.000981676 -0.000981765 -0.00098169 -0.00109015 -0.00109014 -0.00098169 -0.000981676 -0.00109014 -0.00109015 -0.000869953 -0.000869949 -0.000981676 -0.000981692 -0.000869949 -0.000869975 -0.000981692 -0.00098171 -0.000981676 -0.000981692 -0.00109015 -0.00109016 -0.000981692 -0.00098171 -0.00109016 -0.00109017 -0.000641194 -0.000641225 -0.00075345 -0.000753482 -0.000641225 -0.000641249 -0.000753482 -0.000753494 -0.00075345 -0.000753482 -0.000869975 -0.000869994 -0.000753482 -0.000753494 -0.000869994 -0.000869993 -0.000641249 -0.000641252 -0.000753494 -0.000753486 -0.000641252 -0.000641242 -0.000753486 -0.00075347 -0.000753494 -0.000753486 -0.000869993 -0.000869978 -0.000753486 -0.00075347 -0.000869978 -0.00086996 -0.000869975 -0.000869994 -0.00098171 -0.000981715 -0.000869994 -0.000869993 -0.000981715 -0.000981704 -0.00098171 -0.000981715 -0.00109017 -0.00109016 -0.000981715 -0.000981704 -0.00109016 -0.00109015 -0.000869993 -0.000869978 -0.000981704 -0.000981686 -0.000869978 -0.00086996 -0.000981686 -0.000981667 -0.000981704 -0.000981686 -0.00109015 -0.00109013 -0.000981686 -0.000981667 -0.00109013 -0.00109011 -0.00109003 -0.00109027 -0.00119981 -0.00119979 -0.00109027 -0.00109048 -0.00119979 -0.00119976 -0.00119981 -0.00119979 -0.00130995 -0.00130992 -0.00119979 -0.00119976 -0.00130992 -0.00130989 -0.00109048 -0.0010906 -0.00119976 -0.00119969 -0.0010906 -0.00109058 -0.00119969 -0.0011996 -0.00119976 -0.00119969 -0.00130989 -0.00130986 -0.00119969 -0.0011996 -0.00130986 -0.00130985 -0.00130995 -0.00130992 -0.00141999 -0.00141999 -0.00130992 -0.00130989 -0.00141999 -0.00141999 -0.00141999 -0.00141999 -0.00152993 -0.00152993 -0.00141999 -0.00141999 -0.00152993 -0.00152992 -0.00130989 -0.00130986 -0.00141999 -0.00141999 -0.00130986 -0.00130985 -0.00141999 -0.00141999 -0.00141999 -0.00141999 -0.00152992 -0.00152991 -0.00141999 -0.00141999 -0.00152991 -0.0015299 -0.00109058 -0.00109045 -0.0011996 -0.00119953 -0.00109045 -0.00109031 -0.00119953 -0.00119948 -0.0011996 -0.00119953 -0.00130985 -0.00