# vtk DataFile Version 3.0
#This file was generated by the deal.II library on 2022/11/16 at 21:18:14
ASCII
DATASET UNSTRUCTURED_GRID

POINTS 4096 double
0 0.5 0
0.03125 0.5 0
0 0.53125 0
0.03125 0.53125 0
0.03125 0.5 0
0.0625 0.5 0
0.03125 0.53125 0
0.0625 0.53125 0
0 0.53125 0
0.03125 0.53125 0
0 0.5625 0
0.03125 0.5625 0
0.03125 0.53125 0
0.0625 0.53125 0
0.03125 0.5625 0
0.0625 0.5625 0
0.0625 0.5 0
0.09375 0.5 0
0.0625 0.53125 0
0.09375 0.53125 0
0.09375 0.5 0
0.125 0.5 0
0.09375 0.53125 0
0.125 0.53125 0
0.0625 0.53125 0
0.09375 0.53125 0
0.0625 0.5625 0
0.09375 0.5625 0
0.09375 0.53125 0
0.125 0.53125 0
0.09375 0.5625 0
0.125 0.5625 0
0 0.5625 0
0.03125 0.5625 0
0 0.59375 0
0.03125 0.59375 0
0.03125 0.5625 0
0.0625 0.5625 0
0.03125 0.59375 0
0.0625 0.59375 0
0 0.59375 0
0.03125 0.59375 0
0 0.625 0
0.03125 0.625 0
0.03125 0.59375 0
0.0625 0.59375 0
0.03125 0.625 0
0.0625 0.625 0
0.0625 0.5625 0
0.09375 0.5625 0
0.0625 0.59375 0
0.09375 0.59375 0
0.09375 0.5625 0
0.125 0.5625 0
0.09375 0.59375 0
0.125 0.59375 0
0.0625 0.59375 0
0.09375 0.59375 0
0.0625 0.625 0
0.09375 0.625 0
0.09375 0.59375 0
0.125 0.59375 0
0.09375 0.625 0
0.125 0.625 0
0.125 0.5 0
0.15625 0.5 0
0.125 0.53125 0
0.15625 0.53125 0
0.15625 0.5 0
0.1875 0.5 0
0.15625 0.53125 0
0.1875 0.53125 0
0.125 0.53125 0
0.15625 0.53125 0
0.125 0.5625 0
0.15625 0.5625 0
0.15625 0.53125 0
0.1875 0.53125 0
0.15625 0.5625 0
0.1875 0.5625 0
0.1875 0.5 0
0.21875 0.5 0
0.1875 0.53125 0
0.21875 0.53125 0
0.21875 0.5 0
0.25 0.5 0
0.21875 0.53125 0
0.25 0.53125 0
0.1875 0.53125 0
0.21875 0.53125 0
0.1875 0.5625 0
0.21875 0.5625 0
0.21875 0.53125 0
0.25 0.53125 0
0.21875 0.5625 0
0.25 0.5625 0
0.125 0.5625 0
0.15625 0.5625 0
0.125 0.59375 0
0.15625 0.59375 0
0.15625 0.5625 0
0.1875 0.5625 0
0.15625 0.59375 0
0.1875 0.59375 0
0.125 0.59375 0
0.15625 0.59375 0
0.125 0.625 0
0.15625 0.625 0
0.15625 0.59375 0
0.1875 0.59375 0
0.15625 0.625 0
0.1875 0.625 0
0.1875 0.5625 0
0.21875 0.5625 0
0.1875 0.59375 0
0.21875 0.59375 0
0.21875 0.5625 0
0.25 0.5625 0
0.21875 0.59375 0
0.25 0.59375 0
0.1875 0.59375 0
0.21875 0.59375 0
0.1875 0.625 0
0.21875 0.625 0
0.21875 0.59375 0
0.25 0.59375 0
0.21875 0.625 0
0.25 0.625 0
0 0.625 0
0.03125 0.625 0
0 0.65625 0
0.03125 0.65625 0
0.03125 0.625 0
0.0625 0.625 0
0.03125 0.65625 0
0.0625 0.65625 0
0 0.65625 0
0.03125 0.65625 0
0 0.6875 0
0.03125 0.6875 0
0.03125 0.65625 0
0.0625 0.65625 0
0.03125 0.6875 0
0.0625 0.6875 0
0.0625 0.625 0
0.09375 0.625 0
0.0625 0.65625 0
0.09375 0.65625 0
0.09375 0.625 0
0.125 0.625 0
0.09375 0.65625 0
0.125 0.65625 0
0.0625 0.65625 0
0.09375 0.65625 0
0.0625 0.6875 0
0.09375 0.6875 0
0.09375 0.65625 0
0.125 0.65625 0
0.09375 0.6875 0
0.125 0.6875 0
0 0.6875 0
0.03125 0.6875 0
0 0.71875 0
0.03125 0.71875 0
0.03125 0.6875 0
0.0625 0.6875 0
0.03125 0.71875 0
0.0625 0.71875 0
0 0.71875 0
0.03125 0.71875 0
0 0.75 0
0.03125 0.75 0
0.03125 0.71875 0
0.0625 0.71875 0
0.03125 0.75 0
0.0625 0.75 0
0.0625 0.6875 0
0.09375 0.6875 0
0.0625 0.71875 0
0.09375 0.71875 0
0.09375 0.6875 0
0.125 0.6875 0
0.09375 0.71875 0
0.125 0.71875 0
0.0625 0.71875 0
0.09375 0.71875 0
0.0625 0.75 0
0.09375 0.75 0
0.09375 0.71875 0
0.125 0.71875 0
0.09375 0.75 0
0.125 0.75 0
0.125 0.625 0
0.15625 0.625 0
0.125 0.65625 0
0.15625 0.65625 0
0.15625 0.625 0
0.1875 0.625 0
0.15625 0.65625 0
0.1875 0.65625 0
0.125 0.65625 0
0.15625 0.65625 0
0.125 0.6875 0
0.15625 0.6875 0
0.15625 0.65625 0
0.1875 0.65625 0
0.15625 0.6875 0
0.1875 0.6875 0
0.1875 0.625 0
0.21875 0.625 0
0.1875 0.65625 0
0.21875 0.65625 0
0.21875 0.625 0
0.25 0.625 0
0.21875 0.65625 0
0.25 0.65625 0
0.1875 0.65625 0
0.21875 0.65625 0
0.1875 0.6875 0
0.21875 0.6875 0
0.21875 0.65625 0
0.25 0.65625 0
0.21875 0.6875 0
0.25 0.6875 0
0.125 0.6875 0
0.15625 0.6875 0
0.125 0.71875 0
0.15625 0.71875 0
0.15625 0.6875 0
0.1875 0.6875 0
0.15625 0.71875 0
0.1875 0.71875 0
0.125 0.71875 0
0.15625 0.71875 0
0.125 0.75 0
0.15625 0.75 0
0.15625 0.71875 0
0.1875 0.71875 0
0.15625 0.75 0
0.1875 0.75 0
0.1875 0.6875 0
0.21875 0.6875 0
0.1875 0.71875 0
0.21875 0.71875 0
0.21875 0.6875 0
0.25 0.6875 0
0.21875 0.71875 0
0.25 0.71875 0
0.1875 0.71875 0
0.21875 0.71875 0
0.1875 0.75 0
0.21875 0.75 0
0.21875 0.71875 0
0.25 0.71875 0
0.21875 0.75 0
0.25 0.75 0
0.25 0.5 0
0.28125 0.5 0
0.25 0.53125 0
0.28125 0.53125 0
0.28125 0.5 0
0.3125 0.5 0
0.28125 0.53125 0
0.3125 0.53125 0
0.25 0.53125 0
0.28125 0.53125 0
0.25 0.5625 0
0.28125 0.5625 0
0.28125 0.53125 0
0.3125 0.53125 0
0.28125 0.5625 0
0.3125 0.5625 0
0.3125 0.5 0
0.34375 0.5 0
0.3125 0.53125 0
0.34375 0.53125 0
0.34375 0.5 0
0.375 0.5 0
0.34375 0.53125 0
0.375 0.53125 0
0.3125 0.53125 0
0.34375 0.53125 0
0.3125 0.5625 0
0.34375 0.5625 0
0.34375 0.53125 0
0.375 0.53125 0
0.34375 0.5625 0
0.375 0.5625 0
0.25 0.5625 0
0.28125 0.5625 0
0.25 0.59375 0
0.28125 0.59375 0
0.28125 0.5625 0
0.3125 0.5625 0
0.28125 0.59375 0
0.3125 0.59375 0
0.25 0.59375 0
0.28125 0.59375 0
0.25 0.625 0
0.28125 0.625 0
0.28125 0.59375 0
0.3125 0.59375 0
0.28125 0.625 0
0.3125 0.625 0
0.3125 0.5625 0
0.34375 0.5625 0
0.3125 0.59375 0
0.34375 0.59375 0
0.34375 0.5625 0
0.375 0.5625 0
0.34375 0.59375 0
0.375 0.59375 0
0.3125 0.59375 0
0.34375 0.59375 0
0.3125 0.625 0
0.34375 0.625 0
0.34375 0.59375 0
0.375 0.59375 0
0.34375 0.625 0
0.375 0.625 0
0.375 0.5 0
0.40625 0.5 0
0.375 0.53125 0
0.40625 0.53125 0
0.40625 0.5 0
0.4375 0.5 0
0.40625 0.53125 0
0.4375 0.53125 0
0.375 0.53125 0
0.40625 0.53125 0
0.375 0.5625 0
0.40625 0.5625 0
0.40625 0.53125 0
0.4375 0.53125 0
0.40625 0.5625 0
0.4375 0.5625 0
0.4375 0.5 0
0.46875 0.5 0
0.4375 0.53125 0
0.46875 0.53125 0
0.46875 0.5 0
0.5 0.5 0
0.46875 0.53125 0
0.5 0.53125 0
0.4375 0.53125 0
0.46875 0.53125 0
0.4375 0.5625 0
0.46875 0.5625 0
0.46875 0.53125 0
0.5 0.53125 0
0.46875 0.5625 0
0.5 0.5625 0
0.375 0.5625 0
0.40625 0.5625 0
0.375 0.59375 0
0.40625 0.59375 0
0.40625 0.5625 0
0.4375 0.5625 0
0.40625 0.59375 0
0.4375 0.59375 0
0.375 0.59375 0
0.40625 0.59375 0
0.375 0.625 0
0.40625 0.625 0
0.40625 0.59375 0
0.4375 0.59375 0
0.40625 0.625 0
0.4375 0.625 0
0.4375 0.5625 0
0.46875 0.5625 0
0.4375 0.59375 0
0.46875 0.59375 0
0.46875 0.5625 0
0.5 0.5625 0
0.46875 0.59375 0
0.5 0.59375 0
0.4375 0.59375 0
0.46875 0.59375 0
0.4375 0.625 0
0.46875 0.625 0
0.46875 0.59375 0
0.5 0.59375 0
0.46875 0.625 0
0.5 0.625 0
0.25 0.625 0
0.28125 0.625 0
0.25 0.65625 0
0.28125 0.65625 0
0.28125 0.625 0
0.3125 0.625 0
0.28125 0.65625 0
0.3125 0.65625 0
0.25 0.65625 0
0.28125 0.65625 0
0.25 0.6875 0
0.28125 0.6875 0
0.28125 0.65625 0
0.3125 0.65625 0
0.28125 0.6875 0
0.3125 0.6875 0
0.3125 0.625 0
0.34375 0.625 0
0.3125 0.65625 0
0.34375 0.65625 0
0.34375 0.625 0
0.375 0.625 0
0.34375 0.65625 0
0.375 0.65625 0
0.3125 0.65625 0
0.34375 0.65625 0
0.3125 0.6875 0
0.34375 0.6875 0
0.34375 0.65625 0
0.375 0.65625 0
0.34375 0.6875 0
0.375 0.6875 0
0.25 0.6875 0
0.28125 0.6875 0
0.25 0.71875 0
0.28125 0.71875 0
0.28125 0.6875 0
0.3125 0.6875 0
0.28125 0.71875 0
0.3125 0.71875 0
0.25 0.71875 0
0.28125 0.71875 0
0.25 0.75 0
0.28125 0.75 0
0.28125 0.71875 0
0.3125 0.71875 0
0.28125 0.75 0
0.3125 0.75 0
0.3125 0.6875 0
0.34375 0.6875 0
0.3125 0.71875 0
0.34375 0.71875 0
0.34375 0.6875 0
0.375 0.6875 0
0.34375 0.71875 0
0.375 0.71875 0
0.3125 0.71875 0
0.34375 0.71875 0
0.3125 0.75 0
0.34375 0.75 0
0.34375 0.71875 0
0.375 0.71875 0
0.34375 0.75 0
0.375 0.75 0
0.375 0.625 0
0.40625 0.625 0
0.375 0.65625 0
0.40625 0.65625 0
0.40625 0.625 0
0.4375 0.625 0
0.40625 0.65625 0
0.4375 0.65625 0
0.375 0.65625 0
0.40625 0.65625 0
0.375 0.6875 0
0.40625 0.6875 0
0.40625 0.65625 0
0.4375 0.65625 0
0.40625 0.6875 0
0.4375 0.6875 0
0.4375 0.625 0
0.46875 0.625 0
0.4375 0.65625 0
0.46875 0.65625 0
0.46875 0.625 0
0.5 0.625 0
0.46875 0.65625 0
0.5 0.65625 0
0.4375 0.65625 0
0.46875 0.65625 0
0.4375 0.6875 0
0.46875 0.6875 0
0.46875 0.65625 0
0.5 0.65625 0
0.46875 0.6875 0
0.5 0.6875 0
0.375 0.6875 0
0.40625 0.6875 0
0.375 0.71875 0
0.40625 0.71875 0
0.40625 0.6875 0
0.4375 0.6875 0
0.40625 0.71875 0
0.4375 0.71875 0
0.375 0.71875 0
0.40625 0.71875 0
0.375 0.75 0
0.40625 0.75 0
0.40625 0.71875 0
0.4375 0.71875 0
0.40625 0.75 0
0.4375 0.75 0
0.4375 0.6875 0
0.46875 0.6875 0
0.4375 0.71875 0
0.46875 0.71875 0
0.46875 0.6875 0
0.5 0.6875 0
0.46875 0.71875 0
0.5 0.71875 0
0.4375 0.71875 0
0.46875 0.71875 0
0.4375 0.75 0
0.46875 0.75 0
0.46875 0.71875 0
0.5 0.71875 0
0.46875 0.75 0
0.5 0.75 0
0 0.75 0
0.03125 0.75 0
0 0.78125 0
0.03125 0.78125 0
0.03125 0.75 0
0.0625 0.75 0
0.03125 0.78125 0
0.0625 0.78125 0
0 0.78125 0
0.03125 0.78125 0
0 0.8125 0
0.03125 0.8125 0
0.03125 0.78125 0
0.0625 0.78125 0
0.03125 0.8125 0
0.0625 0.8125 0
0.0625 0.75 0
0.09375 0.75 0
0.0625 0.78125 0
0.09375 0.78125 0
0.09375 0.75 0
0.125 0.75 0
0.09375 0.78125 0
0.125 0.78125 0
0.0625 0.78125 0
0.09375 0.78125 0
0.0625 0.8125 0
0.09375 0.8125 0
0.09375 0.78125 0
0.125 0.78125 0
0.09375 0.8125 0
0.125 0.8125 0
0 0.8125 0
0.03125 0.8125 0
0 0.84375 0
0.03125 0.84375 0
0.03125 0.8125 0
0.0625 0.8125 0
0.03125 0.84375 0
0.0625 0.84375 0
0 0.84375 0
0.03125 0.84375 0
0 0.875 0
0.03125 0.875 0
0.03125 0.84375 0
0.0625 0.84375 0
0.03125 0.875 0
0.0625 0.875 0
0.0625 0.8125 0
0.09375 0.8125 0
0.0625 0.84375 0
0.09375 0.84375 0
0.09375 0.8125 0
0.125 0.8125 0
0.09375 0.84375 0
0.125 0.84375 0
0.0625 0.84375 0
0.09375 0.84375 0
0.0625 0.875 0
0.09375 0.875 0
0.09375 0.84375 0
0.125 0.84375 0
0.09375 0.875 0
0.125 0.875 0
0.125 0.75 0
0.15625 0.75 0
0.125 0.78125 0
0.15625 0.78125 0
0.15625 0.75 0
0.1875 0.75 0
0.15625 0.78125 0
0.1875 0.78125 0
0.125 0.78125 0
0.15625 0.78125 0
0.125 0.8125 0
0.15625 0.8125 0
0.15625 0.78125 0
0.1875 0.78125 0
0.15625 0.8125 0
0.1875 0.8125 0
0.1875 0.75 0
0.21875 0.75 0
0.1875 0.78125 0
0.21875 0.78125 0
0.21875 0.75 0
0.25 0.75 0
0.21875 0.78125 0
0.25 0.78125 0
0.1875 0.78125 0
0.21875 0.78125 0
0.1875 0.8125 0
0.21875 0.8125 0
0.21875 0.78125 0
0.25 0.78125 0
0.21875 0.8125 0
0.25 0.8125 0
0.125 0.8125 0
0.15625 0.8125 0
0.125 0.84375 0
0.15625 0.84375 0
0.15625 0.8125 0
[...]
POINT_DATA 4096
SCALARS x_dis double 1
LOOKUP_TABLE default
-3.95806e-12 -3.95806e-12 3.88565e-11 3.88565e-11 -3.95806e-12 -3.95806e-12 3.88565e-11 3.88566e-11 3.88565e-11 3.88565e-11 -1.76783e-10 -1.76783e-10 3.88565e-11 3.88566e-11 -1.76783e-10 -1.76784e-10 -3.95806e-12 -3.95807e-12 3.88566e-11 3.88566e-11 -3.95807e-12 -3.95807e-12 3.88566e-11 3.88566e-11 3.88566e-11 3.88566e-11 -1.76784e-10 -1.76784e-10 3.88566e-11 3.88566e-11 -1.76784e-10 -1.76784e-10 -1.76783e-10 -1.76783e-10 5.48303e-10 5.48303e-10 -1.76783e-10 -1.76784e-10 5.48303e-10 5.48303e-10 5.48303e-10 5.48303e-10 -1.01121e-09 -1.01121e-09 5.48303e-10 5.48303e-10 -1.01121e-09 -1.01121e-09 -1.76784e-10 -1.76784e-10 5.48303e-10 5.48303e-10 -1.76784e-10 -1.76784e-10 5.48303e-10 5.48303e-10 5.48303e-10 5.48303e-10 -1.01121e-09 -1.01121e-09 5.48303e-10 5.48303e-10 -1.01121e-09 -1.0112e-09 -3.95807e-12 -3.95806e-12 3.88566e-11 3.88566e-11 -3.95806e-12 -3.95806e-12 3.88566e-11 3.88566e-11 3.88566e-11 3.88566e-11 -1.76784e-10 -1.76784e-10 3.88566e-11 3.88566e-11 -1.76784e-10 -1.76784e-10 -3.95806e-12 -3.95807e-12 3.88566e-11 3.88566e-11 -3.95807e-12 -3.95807e-12 3.88566e-11 3.88566e-11 3.88566e-11 3.88566e-11 -1.76784e-10 -1.76784e-10 3.88566e-11 3.88566e-11 -1.76784e-10 -1.76784e-10 -1.76784e-10 -1.76784e-10 5.48303e-10 5.48303e-10 -1.76784e-10 -1.76784e-10 5.48303e-10 5.48303e-10 5.48303e-10 5.48303e-10 -1.0112e-09 -1.01121e-09 5.48303e-10 5.48303e-10 -1.01121e-09 -1.01121e-09 -1.76784e-10 -1.76784e-10 5.48303e-10 5.48303e-10 -1.76784e-10 -1.76784e-10 5.48303e-10 5.48303e-10 5.48303e-10 5.48303e-10 -1.01121e-09 -1.01121e-09 5.48303e-10 5.48303e-10 -1.01121e-09 -1.01121e-09 -1.01121e-09 -1.01121e-09 -6.84112e-10 -6.84112e-10 -1.01121e-09 -1.01121e-09 -6.84112e-10 -6.84119e-10 -6.84112e-10 -6.84112e-10 1.42813e-08 1.42813e-08 -6.84112e-10 -6.84119e-10 1.42813e-08 1.42813e-08 -1.01121e-09 -1.01121e-09 -6.84119e-10 -6.84129e-10 -1.01121e-09 -1.0112e-09 -6.84129e-10 -6.84133e-10 -6.84119e-10 -6.84129e-10 1.42813e-08 1.42813e-08 -6.84129e-10 -6.84133e-10 1.42813e-08 1.42813e-08 1.42813e-08 1.42813e-08 -6.10843e-08 -6.10843e-08 1.42813e-08 1.42813e-08 -6.10843e-08 -6.10842e-08 -6.10843e-08 -6.10843e-08 1.26761e-07 1.26761e-07 -6.10843e-08 -6.10842e-08 1.26761e-07 1.26762e-07 1.42813e-08 1.42813e-08 -6.10842e-08 -6.10841e-08 1.42813e-08 1.42813e-08 -6.10841e-08 -6.1084e-08 -6.10842e-08 -6.10841e-08 1.26762e-07 1.26761e-07 -6.10841e-08 -6.1084e-08 1.26761e-07 1.26761e-07 -1.0112e-09 -1.01121e-09 -6.84133e-10 -6.84132e-10 -1.01121e-09 -1.01121e-09 -6.84132e-10 -6.84133e-10 -6.84133e-10 -6.84132e-10 1.42813e-08 1.42813e-08 -6.84132e-10 -6.84133e-10 1.42813e-08 1.42813e-08 -1.01121e-09 -1.01121e-09 -6.84133e-10 -6.84133e-10 -1.01121e-09 -1.01121e-09 -6.84133e-10 -6.84133e-10 -6.84133e-10 -6.84133e-10 1.42813e-08 1.42813e-08 -6.84133e-10 -6.84133e-10 1.42813e-08 1.42813e-08 1.42813e-08 1.42813e-08 -6.1084e-08 -6.1084e-08 1.42813e-08 1.42813e-08 -6.1084e-08 -6.1084e-08 -6.1084e-08 -6.1084e-08 1.26761e-07 1.26761e-07 -6.1084e-08 -6.1084e-08 1.26761e-07 1.26761e-07 1.42813e-08 1.42813e-08 -6.1084e-08 -6.1084e-08 1.42813e-08 1.42813e-08 -6.1084e-08 -6.1084e-08 -6.1084e-08 -6.1084e-08 1.26761e-07 1.26761e-07 -6.1084e-08 -6.1084e-08 1.26761e-07 1.26761e-07 -3.95807e-12 -3.95806e-12 3.88566e-11 3.88566e-11 -3.95806e-12 -3.95807e-12 3.88566e-11 3.88564e-11 3.88566e-11 3.88566e-11 -1.76784e-10 -1.76784e-10 3.88566e-11 3.88564e-11 -1.76784e-10 -1.76784e-10 -3.95807e-12 -3.95808e-12 3.88564e-11 3.88571e-11 -3.95808e-12 -3.958e-12 3.88571e-11 3.88577e-11 3.88564e-11 3.88571e-11 -1.76784e-10 -1.76783e-10 3.88571e-11 3.88577e-11 -1.76783e-10 -1.76785e-10 -1.76784e-10 -1.76784e-10 5.48303e-10 5.48303e-10 -1.76784e-10 -1.76784e-10 5.48303e-10 5.48303e-10 5.48303e-10 5.48303e-10 -1.01121e-09 -1.01121e-09 5.48303e-10 5.48303e-10 -1.01121e-09 -1.01121e-09 -1.76784e-10 -1.76783e-10 5.48303e-10 5.48303e-10 -1.76783e-10 -1.76785e-10 5.48303e-10 5.48303e-10 5.48303e-10 5.48303e-10 -1.01121e-09 -1.01121e-09 5.48303e-10 5.48303e-10 -1.01121e-09 -1.01121e-09 -3.958e-12 -3.95817e-12 3.88577e-11 3.8847e-11 -3.95817e-12 -3.95823e-12 3.8847e-11 3.88695e-11 3.88577e-11 3.8847e-11 -1.76785e-10 -1.76785e-10 3.8847e-11 3.88695e-11 -1.76785e-10 -1.76768e-10 -3.95823e-12 -3.95691e-12 3.88695e-11 3.89617e-11 -3.95691e-12 -3.96029e-12 3.89617e-11 3.84137e-11 3.88695e-11 3.89617e-11 -1.76768e-10 -1.76843e-10 3.89617e-11 3.84137e-11 -1.76843e-10 -1.76564e-10 -1.76785e-10 -1.76785e-10 5.48303e-10 5.48301e-10 -1.76785e-10 -1.76768e-10 5.48301e-10 5.48299e-10 5.48303e-10 5.48301e-10 -1.01121e-09 -1.0112e-09 5.48301e-10 5.48299e-10 -1.0112e-09 -1.01121e-09 -1.76768e-10 -1.76843e-10 5.48299e-10 5.48339e-10 -1.76843e-10 -1.76564e-10 5.48339e-10 5.48239e-10 5.48299e-10 5.48339e-10 -1.01121e-09 -1.01122e-09 5.48339e-10 5.48239e-10 -1.01122e-09 -1.01119e-09 -1.01121e-09 -1.01121e-09 -6.84133e-10 -6.84133e-10 -1.01121e-09 -1.01121e-09 -6.84133e-10 -6.84133e-10 -6.84133e-10 -6.84133e-10 1.42813e-08 1.42813e-08 -6.84133e-10 -6.84133e-10 1.42813e-08 1.42813e-08 -1.01121e-09 -1.01121e-09 -6.84133e-10 -6.84133e-10 -1.01121e-09 -1.01121e-09 -6.84133e-10 -6.84133e-10 -6.84133e-10 -6.84133e-10 1.42813e-08 1.42813e-08 -6.84133e-10 -6.84133e-10 1.42813e-08 1.42813e-08 1.42813e-08 1.42813e-08 -6.1084e-08 -6.1084e-08 1.42813e-08 1.42813e-08 -6.1084e-08 -6.1084e-08 -6.1084e-08 -6.1084e-08 1.26761e-07 1.26761e-07 -6.1084e-08 -6.1084e-08 1.26761e-07 1.26761e-07 1.42813e-08 1.42813e-08 -6.1084e-08 -6.1084e-08 1.42813e-08 1.42813e-08 -6.1084e-08 -6.1084e-08 -6.1084e-08 -6.1084e-08 1.26761e-07 1.26761e-07 -6.1084e-08 -6.1084e-08 1.26761e-07 1.26761e-07 -1.01121e-09 -1.0112e-09 -6.84133e-10 -6.84133e-10 -1.0112e-09 -1.01121e-09 -6.84133e-10 -6.84131e-10 -6.84133e-10 -6.84133e-10 1.42813e-08 1.42813e-08 -6.84133e-10 -6.84131e-10 1.42813e-08 1.42813e-08 -1.01121e-09 -1.01122e-09 -6.84131e-10 -6.84134e-10 -1.01122e-09 -1.01119e-09 -6.84134e-10 -6.84139e-10 -6.84131e-10 -6.84134e-10 1.42813e-08 1.42813e-08 -6.84134e-10 -6.84139e-10 1.42813e-08 1.42813e-08 1.42813e-08 1.42813e-08 -6.1084e-08 -6.1084e-08 1.42813e-08 1.42813e-08 -6.1084e-08 -6.1084e-08 -6.1084e-08 -6.1084e-08 1.26761e-07 1.26761e-07 -6.1084e-08 -6.1084e-08 1.26761e-07 1.26761e-07 1.42813e-08 1.42813e-08 -6.1084e-08 -6.1084e-08 1.42813e-08 1.42813e-08 -6.1084e-08 -6.1084e-08 -6.1084e-08 -6.1084e-08 1.26761e-07 1.26761e-07 -6.1084e-08 -6.1084e-08 1.26761e-07 1.26761e-07 1.26761e-07 1.26761e-07 9.16456e-08 9.16443e-08 1.26761e-07 1.26762e-07 9.16443e-08 9.16419e-08 9.16456e-08 9.16443e-08 -1.55809e-06 -1.55809e-06 9.16443e-08 9.16419e-08 -1.55809e-06 -1.55809e-06 1.26762e-07 1.26761e-07 9.16419e-08 9.16401e-08 1.26761e-07 1.26761e-07 9.16401e-08 9.16388e-08 9.16419e-08 9.16401e-08 -1.55809e-06 -1.55809e-06 9.16401e-08 9.16388e-08 -1.55809e-06 -1.55809e-06 -1.55809e-06 -1.55809e-06 3.70761e-06 3.70764e-06 -1.55809e-06 -1.55809e-06 3.70764e-06 3.70771e-06 3.70761e-06 3.70764e-06 6.88695e-06 6.88711e-06 3.70764e-06 3.70771e-06 6.88711e-06 6.88747e-06 -1.55809e-06 -1.55809e-06 3.70771e-06 3.70776e-06 -1.55809e-06 -1.55809e-06 3.70776e-06 3.70779e-06 3.70771e-06 3.70776e-06 6.88747e-06 6.88774e-06 3.70776e-06 3.70779e-06 6.88774e-06 6.88785e-06 1.26761e-07 1.26761e-07 9.16388e-08 9.16383e-08 1.26761e-07 1.26761e-07 9.16383e-08 9.16384e-08 9.16388e-08 9.16383e-08 -1.55809e-06 -1.55809e-06 9.16383e-08 9.16384e-08 -1.55809e-06 -1.55809e-06 1.26761e-07 1.26761e-07 9.16384e-08 9.16385e-08 1.26761e-07 1.26761e-07 9.16385e-08 9.16384e-08 9.16384e-08 9.16385e-08 -1.55809e-06 -1.55809e-06 9.16385e-08 9.16384e-08 -1.55809e-06 -1.55809e-06 -1.55809e-06 -1.55809e-06 3.70779e-06 3.7078e-06 -1.55809e-06 -1.55809e-06 3.7078e-06 3.70781e-06 3.70779e-06 3.7078e-06 6.88785e-06 6.88789e-06 3.7078e-06 3.70781e-06 6.88789e-06 6.88789e-06 -1.55809e-06 -1.55809e-06 3.70781e-06 3.70781e-06 -1.55809e-06 -1.55809e-06 3.70781e-06 3.70781e-06 3.70781e-06 3.70781e-06 6.88789e-06 6.88789e-06 3.70781e-06 3.70781e-06 6.88789e-06 6.88789e-06 6.88695e-06 6.88711e-06 -3.88941e-05 -3.88935e-05 6.88711e-06 6.88747e-06 -3.88935e-05 -3.88925e-05 -3.88941e-05 -3.88935e-05 -0.00013279 -0.000132788 -3.88935e-05 -3.88925e-05 -0.000132788 -0.000132786 6.88747e-06 6.88774e-06 -3.88925e-05 -3.88918e-05 6.88774e-06 6.88785e-06 -3.88918e-05 -3.88915e-05 -3.88925e-05 -3.88918e-05 -0.000132786 -0.000132785 -3.88918e-05 -3.88915e-05 -0.000132785 -0.000132784 -0.00013279 -0.000132788 -0.000240012 -0.000240006 -0.000132788 -0.000132786 -0.000240006 -0.000240004 -0.000240012 -0.000240006 -0.00035 -0.00035 -0.000240006 -0.000240004 -0.00035 -0.00035 -0.000132786 -0.000132785 -0.000240004 -0.000240003 -0.000132785 -0.000132784 -0.000240003 -0.000240003 -0.000240004 -0.000240003 -0.00035 -0.00035 -0.000240003 -0.000240003 -0.00035 -0.00035 6.88785e-06 6.88789e-06 -3.88915e-05 -3.88915e-05 6.88789e-06 6.88789e-06 -3.88915e-05 -3.88914e-05 -3.88915e-05 -3.88915e-05 -0.000132784 -0.000132784 -3.88915e-05 -3.88914e-05 -0.000132784 -0.000132784 6.88789e-06 6.88789e-06 -3.88914e-05 -3.88914e-05 6.88789e-06 6.88789e-06 -3.88914e-05 -3.88914e-05 -3.88914e-05 -3.88914e-05 -0.000132784 -0.000132784 -3.88914e-05 -3.88914e-05 -0.000132784 -0.000132784 -0.000132784 -0.000132784 -0.000240003 -0.000240003 -0.000132784 -0.000132784 -0.000240003 -0.000240003 -0.000240003 -0.000240003 -0.00035 -0.00035 -0.000240003 -0.000240003 -0.00035 -0.00035 -0.000132784 -0.000132784 -0.000240003 -0.000240003 -0.000132784 -0.000132784 -0.000240003 -0.000240003 -0.000240003 -0.000240003 -0.00035 -0.00035 -0.000240003 -0.000240003 -0.00035 -0.00035 1.26761e-07 1.26761e-07 9.16384e-08 9.16384e-08 1.26761e-07 1.26761e-07 9.16384e-08 9.16384e-08 9.16384e-08 9.16384e-08 -1.55809e-06 -1.55809e-06 9.16384e-08 9.16384e-08 -1.55809e-06 -1.55809e-06 1.26761e-07 1.26761e-07 9.16384e-08 9.16384e-08 1.26761e-07 1.26761e-07 9.16384e-08 9.16384e-08 9.16384e-08 9.16384e-08 -1.55809e-06 -1.55809e-06 9.16384e-08 9.16384e-08 -1.55809e-06 -1.55809e-06 -1.55809e-06 -1.55809e-06 3.70781e-06 3.70781e-06 -1.55809e-06 -1.55809e-06 3.70781e-06 3.70781e-06 3.70781e-06 3.70781e-06 6.88789e-06 6.88789e-06 3.70781e-06 3.70781e-06 6.88789e-06 6.88789e-06 -1.55809e-06 -1.55809e-06 3.70781e-06 3.70781e-06 -1.55809e-06 -1.55809e-06 3.70781e-06 3.70781e-06 3.70781e-06 3.70781e-06 6.88789e-06 6.88789e-06 3.70781e-06 3.70781e-06 6.88789e-06 6.88789e-06 1.26761e-07 1.26761e-07 9.16384e-08 9.16384e-08 1.26761e-07 1.26761e-07 9.16384e-08 9.16384e-08 9.16384e-08 9.16384e-08 -1.55809e-06 -1.55809e-06 9.16384e-08 9.16384e-08 -1.55809e-06 -1.55809e-06 1.26761e-07 1.26761e-07 9.16384e-08 9.16384e-08 1.26761e-07 1.26761e-07 9.16384e-08 9.16384e-08 9.16384e-08 9.16384e-08 -1.55809e-06 -1.55809e-06 9.16384e-08 9.16384e-08 -1.55809e-06 -1.55809e-06 -1.55809e-06 -1.55809e-06 3.70781e-06 3.70781e-06 -1.55809e-06 -1.55809e-06 3.70781e-06 3.70781e-06 3.70781e-06 3.70781e-06 6.88789e-06 6.88789e-06 3.70781e-06 3.70781e-06 6.88789e-06 6.88789e-06 -1.55809e-06 -1.55809e-06 3.70781e-06 3.70781e-06 -1.55809e-06 -1.55809e-06 3.70781e-06 3.70781e-06 3.70781e-06 3.70781e-06 6.88789e-06 6.88789e-06 3.70781e-06 3.70781e-06 6.88789e-06 6.88789e-06 6.88789e-06 6.88789e-06 -3.88914e-05 -3.88914e-05 6.88789e-06 6.88789e-06 -3.88914e-05 -3.88914e-05 -3.88914e-05 -3.88914e-05 -0.000132784 -0.000132784 -3.88914e-05 -3.88914e-05 -0.000132784 -0.000132784 6.88789e-06 6.88789e-06 -3.88914e-05 -3.88914e-05 6.88789e-06 6.88789e-06 -3.88914e-05 -3.88914e-05 -3.88914e-05 -3.88914e-05 -0.000132784 -0.000132784 -3.88914e-05 -3.88914e-05 -0.000132784 -0.000132784 -0.000132784 -0.000132784 -0.000240003 -0.000240003 -0.000132784 -0.000132784 -0.000240003 -0.000240003 -0.000240003 -0.000240003 -0.00035 -0.00035 -0.000240003 -0.000240003 -0.00035 -0.00035 -0.000132784 -0.000132784 -0.000240003 -0.000240003 -0.000132784 -0.000132784 -0.000240003 -0.000240003 -0.000240003 -0.000240003 -0.00035 -0.00035 -0.000240003 -0.000240003 -0.00035 -0.00035 6.88789e-06 6.88789e-06 -3.88914e-05 -3.88914e-05 6.88789e-06 6.88789e-06 -3.88914e-05 -3.88914e-05 -3.88914e-05 -3.88914e-05 -0.000132784 -0.000132784 -3.88914e-05 -3.88914e-05 -0.000132784 -0.000132784 6.88789e-06 6.88789e-06 -3.88914e-05 -3.88914e-05 6.88789e-06 6.88789e-06 -3.88914e-05 -3.88914e-05 -3.88914e-05 -3.88914e-05 -0.000132784 -0.000132784 -3.88914e-05 -3.88914e-05 -0.000132784 -0.000132784 -0.000132784 -0.000132784 -0.000240003 -0.000240003 -0.000132784 -0.000132784 -0.000240003 -0.000240003 -0.000240003 -0.000240003 -0.00035 -0.00035 -0.000240003 -0.000240003 -0.00035 -0.00035 -0.000132784 -0.000132784 -0.000240003 -0.000240003 -0.000132784 -0.000132784 -0.000240003 -0.000240003 -0.000240003 -0.000240003 -0.00035 -0.00035 -0.000240003 -0.000240003 -0.00035 -0.00035 -3.96029e-12 -3.76857e-12 3.84137e-11 3.67089e-11 -3.76857e-12 -8.88637e-12 3.67089e-11 3.73832e-11 3.84137e-11 3.67089e-11 -1.76564e-10 -1.75646e-10 3.67089e-11 3.73832e-11 -1.75646e-10 -1.75662e-10 -8.88637e-12 -8.05839e-12 3.73832e-11 3.75252e-11 -8.05839e-12 -7.79693e-12 3.75252e-11 3.75102e-11 3.73832e-11 3.75252e-11 -1.75662e-10 -1.75784e-10 3.75252e-11 3.75102e-11 -1.75784e-10 -1.75756e-10 -1.76564e-10 -1.75646e-10 5.48239e-10 5.47891e-10 -1.75646e-10 -1.75662e-10 5.47891e-10 5.47837e-10 5.48239e-10 5.47891e-10 -1.01119e-09 -1.0111e-09 5.47891e-10 5.47837e-10 -1.0111e-09 -1.01106e-09 -1.75662e-10 -1.75784e-10 5.47837e-10 5.47899e-10 -1.75784e-10 -1.75756e-10 5.47899e-10 5.479e-10 5.47837e-10 5.47899e-10 -1.01106e-09 -1.01108e-09 5.47899e-10 5.479e-10 -1.01108e-09 -1.01109e-09 -7.79693e-12 -7.93737e-12 3.75102e-11 3.74849e-11 -7.93737e-12 -7.91971e-12 3.74849e-11 3.7492e-11 3.75102e-11 3.74849e-11 -1.75756e-10 -1.75746e-10 3.74849e-11 3.7492e-11 -1.75746e-10 -1.75755e-10 -7.91971e-12 -7.91329e-12 3.7492e-11 3.74933e-11 -7.91329e-12 -7.91675e-12 3.74933e-11 3.7492e-11 3.7492e-11 3.74933e-11 -1.75755e-10 -1.75752e-10 3.74933e-11 3.7492e-11 -1.75752e-10 -1.75752e-10 -1.75756e-10 -1.75746e-10 5.479e-10 5.47888e-10 -1.75746e-10 -1.75755e-10 5.47888e-10 5.47892e-10 5.479e-10 5.47888e-10 -1.01109e-09 -1.01108e-09 5.47888e-10 5.47892e-10 -1.01108e-09 -1.01108e-09 -1.75755e-10 -1.75752e-10 5.47892e-10 5.47892e-10 -1.75752e-10 -1.75752e-10 5.47892e-10 5.47892e-10 5.47892e-10 5.47892e-10 -1.01108e-09 -1.01108e-09 5.47892e-10 5.47892e-10 -1.01108e-09 -1.01108e-09 -1.01119e-09 -1.0111e-09 -6.84139e-10 -6.84152e-10 -1.0111e-09 -1.01106e-09 -6.84152e-10 -6.84165e-10 -6.84139e-10 -6.84152e-10 1.42813e-08 1.42813e-08 -6.84152e-10 -6.84165e-10 1.42813e-08 1.42813e-08 -1.01106e-09 -1.01108e-09 -6.84165e-10 -6.84166e-10 -1.01108e-09 -1.01109e-09 -6.84166e-10 -6.84162e-10 -6.84165e-10 -6.84166e-10 1.42813e-08 1.42813e-08 -6.84166e-10 -6.84162e-10 1.42813e-08 1.42813e-08 1.42813e-08 1.42813e-08 -6.1084e-08 -6.1084e-08 1.42813e-08 1.42813e-08 -6.1084e-08 -6.1084e-08 -6.1084e-08 -6.1084e-08 1.26761e-07 1.26761e-07 -6.1084e-08 -6.1084e-08 1.26761e-07 1.26761e-07 1.42813e-08 1.42813e-08 -6.1084e-08 -6.1084e-08 1.42813e-08 1.42813e-08 -6.1084e-08 -6.1084e-08 -6.1084e-08 -6.1084e-08 1.26761e-07 1.26761e-07 -6.1084e-08 -6.1084e-08 1.26761e-07 1.26761e-07 -1.01109e-09 -1.01108e-09 -6.84162e-10 -6.84162e-10 -1.01108e-09 -1.01108e-09 -6.84162e-10 -6.84163e-10 -6.84162e-10 -6.84162e-10 1.42813e-08 1.42813e-08 -6.84162e-10 -6.84163e-10 1.42813e-08 1.42813e-08 -1.01108e-09 -1.01108e-09 -6.84163e-10 -6.84163e-10 -1.01108e-09 -1.01108e-09 -6.84163e-10 -6.84163e-10 -6.84163e-10 -6.84163e-10 1.42813e-08 1.42813e-08 -6.84163e-10 -6.84163e-10 1.42813e-08 1.42813e-08 1.42813e-08 1.42813e-08 -6.1084e-08 -6.1084e-08 1.42813e-08 1.42813e-08 -6.1084e-08 -6.1084e-08 -6.1084e-08 -6.1084e-08 1.26761e-07 1.26761e-07 -6.1084e-08 -6.1084e-08 1.26761e-07 1.26761e-07 1.42813e-08 1.42813e-08 -6.1084e-08 -6.1084e-08 1.42813e-08 1.42813e-08 -6.1084e-08 -6.1084e-08 -6.1084e-08 -6.1084e-08 1.26761e-07 1.26761e-07 -6.1084e-08 -6.1084e-08 1.26761e-07 1.26761e-07 -7.91675e-12 -7.91615e-12 3.7492e-11 3.74924e-11 -7.91615e-12 -7.91607e-12 3.74924e-11 3.74924e-11 3.7492e-11 3.74924e-11 -1.75752e-10 -1.75753e-10 3.74924e-11 3.74924e-11 -1.75753e-10 -1.75753e-10 -7.91607e-12 -7.91615e-12 3.74924e-11 3.74923e-11 -7.91615e-12 -7.91612e-12 3.74923e-11 3.74923e-11 3.74924e-11 3.74923e-11 -1.75753e-10 -1.75753e-10 3.74923e-11 3.74923e-11 -1.75753e-10 -1.75753e-10 -1.75752e-10 -1.75753e-10 5.47892e-10 5.47892e-10 -1.75753e-10 -1.75753e-10 5.47892e-10 5.47892e-10 5.47892e-10 5.47892e-10 -1.01108e-09 -1.01108e-09 5.47892e-10 5.47892e-10 -1.01108e-09 -1.01108e-09 -1.75753e-10 -1.75753e-10 5.47892e-10 5.47892e-10 -1.75753e-10 -1.75753e-10 5.47892e-10 5.47892e-10 5.47892e-10 5.47892e-10 -1.01108e-09 -1.01108e-09 5.47892e-10 5.47892e-10 -1.01108e-09 -1.01108e-09 -7.91612e-12 -7.91612e-12 3.74923e-11 3.74923e-11 -7.91612e-12 -7.91613e-12 3.74923e-11 3.74924e-11 3.74923e-11 3.74923e-11 -1.75753e-10 -1.75753e-10 3.74923e-11 3.74924e-11 -1.75753e-10 -1.75753e-10 -7.91613e-12 -7.91614e-12 3.74924e-11 3.74924e-11 -7.91614e-12 -7.91615e-12 3.74924e-11 3.74924e-11 3.74924e-11 3.74924e-11 -1.75753e-10 -1.75753e-10 3.74924e-11 3.74924e-11 -1.75753e-10 -1.75753e-10 -1.75753e-10 -1.75753e-10 5.47892e-10 5.47892e-10 -1.75753e-10 -1.75753e-10 5.47892e-10 5.47892e-10 5.47892e-10 5.47892e-10 -1.01108e-09 -1.01108e-09 5.47892e-10 5.47892e-10 -1.01108e-09 -1.01108e-09 -1.75753e-10 -1.75753e-10 5.47892e-10 5.47892e-10 -1.75753e-10 -1.75753e-10 5.47892e-10 5.47892e-10 5.47892e-10 5.47892e-10 -1.01108e-09 -1.01108e-09 5.47892e-10 5.47892e-10 -1.01108e-09 -1.01108e-09 -1.01108e-09 -1.01108e-09 -6.84163e-10 -6.84163e-10 -1.01108e-09 -1.01108e-09 -6.84163e-10 -6.84163e-10 -6.84163e-10 -6.84163e-10 1.42813e-08 1.42813e-08 -6.84163e-10 -6.84163e-10 1.42813e-08 1.42813e-08 -1.01108e-09 -1.01108e-09 -6.84163e-10 -6.84163e-10 -1.01108e-09 -1.01108e-09 -6.84163e-10 -6.84163e-10 -6.84163e-10 -6.84163e-10 1.42813e-08 1.42813e-08 -6.84163e-10 -6.84163e-10 1.42813e-08 1.42813e-08 1.42813e-08 1.42813e-08 -6.1084e-08 -6.1084e-08 1.42813e-08 1.42813e-08 -6.1084e-08 -6.1084e-08 -6.1084e-08 -6.1084e-08 1.26761e-07 1.26761e-07 -6.1084e-08 -6.1084e-08 1.26761e-07 1.26761e-07 1.42813e-08 1.42813e-08 -6.1084e-08 -6.1084e-08 1.42813e-08 1.42813e-08 -6.1084e-08 -6.1084e-08 -6.1084e-08 -6.1084e-08 1.26761e-07 1.26761e-07 -6.1084e-08 -6.1084e-08 1.26761e-07 1.26761e-07 -1.01108e-09 -1.01108e-09 -6.84163e-10 -6.84167e-10 -1.01108e-09 -1.01108e-09 -6.84167e-10 -6.84177e-10 -6.84163e-10 -6.84167e-10 1.42813e-08 1.42813e-08 -6.84167e-10 -6.84177e-10 1.42813e-08 1.42813e-08 -1.01108e-09 -1.01108e-09 -6.84177e-10 -6.84183e-10 -1.01108e-09 -1.01108e-09 -6.84183e-10 -6.84183e-10 -6.84177e-10 -6.84183e-10 1.42813e-08 1.42813e-08 -6.84183e-10 -6.84183e-10 1.42813e-08 1.42813e-08 1.42813e-08 1.42813e-08 -6.1084e-08 -6.10839e-08 1.42813e-08 1.42813e-08 -6.10839e-08 -6.10837e-08 -6.1084e-08 -6.10839e-08 1.26761e-07 1.26761e-07 -6.10839e-08 -6.10837e-08 1.26761e-07 1.2676e-07 1.42813e-08 1.42813e-08 -6.10837e-08 -6.10836e-08 1.42813e-08 1.42813e-08 -6.10836e-08 -6.10836e-08 -6.10837e-08 -6.10836e-08 1.2676e-07 1.26761e-07 -6.10836e-08 -6.10836e-08 1.26761e-07 1.26761e-07 1.26761e-07 1.26761e-07 9.16384e-08 9.16384e-08 1.26761e-07 1.26761e-07 9.16384e-08 9.16384e-08 9.16384e-08 9.16384e-08 -1.55809e-06 -1.55809e-06 9.16384e-08 9.16384e-08 -1.55809e-06 -1.55809e-06 1.26761e-07 1.26761e-07 9.16384e-08 9.16384e-08 1.26761e-07 1.26761e-07 9.16384e-08 9.16384e-08 9.16384e-08 9.16384e-08 -1.55809e-06 -1.55809e-06 9.16384e-08 9.16384e-08 -1.55809e-06 -1.55809e-06 -1.55809e-06 -1.55809e-06 3.70781e-06 3.70781e-06 -1.55809e-06 -1.55809e-06 3.70781e-06 3.70781e-06 3.70781e-06 3.70781e-06 6.88789e-06 6.88789e-06 3.70781e-06 3.70781e-06 6.88789e-06 6.88789e-06 -1.55809e-06 -1.55809e-06 3.70781e-06 3.70781e-06 -1.55809e-06 -1.55809e-06 3.70781e-06 3.70781e-06 3.70781e-06 3.70781e-06 6.88789e-06 6.88789e-06 3.70781e-06 3.70781e-06 6.88789e-06 6.88789e-06 1.26761e-07 1.26761e-07 9.16384e-08 9.16384e-08 1.26761e-07 1.26761e-07 9.16384e-08 9.16384e-08 9.16384e-08 9.16384e-08 -1.55809e-06