# vtk DataFile Version 3.0
#This file was generated by the deal.II library on 2022/11/16 at 21:25:57
ASCII
DATASET UNSTRUCTURED_GRID

POINTS 4096 double
0 0.5 0
0.03125 0.5 0
0 0.53125 0
0.03125 0.53125 0
0.03125 0.5 0
0.0625 0.5 0
0.03125 0.53125 0
0.0625 0.53125 0
0 0.53125 0
0.03125 0.53125 0
0 0.5625 0
0.03125 0.5625 0
0.03125 0.53125 0
0.0625 0.53125 0
0.03125 0.5625 0
0.0625 0.5625 0
0.0625 0.5 0
0.09375 0.5 0
0.0625 0.53125 0
0.09375 0.53125 0
0.09375 0.5 0
0.125 0.5 0
0.09375 0.53125 0
0.125 0.53125 0
0.0625 0.53125 0
0.09375 0.53125 0
0.0625 0.5625 0
0.09375 0.5625 0
0.09375 0.53125 0
0.125 0.53125 0
0.09375 0.5625 0
0.125 0.5625 0
0 0.5625 0
0.03125 0.5625 0
0 0.59375 0
0.03125 0.59375 0
0.03125 0.5625 0
0.0625 0.5625 0
0.03125 0.59375 0
0.0625 0.59375 0
0 0.59375 0
0.03125 0.59375 0
0 0.625 0
0.03125 0.625 0
0.03125 0.59375 0
0.0625 0.59375 0
0.03125 0.625 0
0.0625 0.625 0
0.0625 0.5625 0
0.09375 0.5625 0
0.0625 0.59375 0
0.09375 0.59375 0
0.09375 0.5625 0
0.125 0.5625 0
0.09375 0.59375 0
0.125 0.59375 0
0.0625 0.59375 0
0.09375 0.59375 0
0.0625 0.625 0
0.09375 0.625 0
0.09375 0.59375 0
0.125 0.59375 0
0.09375 0.625 0
0.125 0.625 0
0.125 0.5 0
0.15625 0.5 0
0.125 0.53125 0
0.15625 0.53125 0
0.15625 0.5 0
0.1875 0.5 0
0.15625 0.53125 0
0.1875 0.53125 0
0.125 0.53125 0
0.15625 0.53125 0
0.125 0.5625 0
0.15625 0.5625 0
0.15625 0.53125 0
0.1875 0.53125 0
0.15625 0.5625 0
0.1875 0.5625 0
0.1875 0.5 0
0.21875 0.5 0
0.1875 0.53125 0
0.21875 0.53125 0
0.21875 0.5 0
0.25 0.5 0
0.21875 0.53125 0
0.25 0.53125 0
0.1875 0.53125 0
0.21875 0.53125 0
0.1875 0.5625 0
0.21875 0.5625 0
0.21875 0.53125 0
0.25 0.53125 0
0.21875 0.5625 0
0.25 0.5625 0
0.125 0.5625 0
0.15625 0.5625 0
0.125 0.59375 0
0.15625 0.59375 0
0.15625 0.5625 0
0.1875 0.5625 0
0.15625 0.59375 0
0.1875 0.59375 0
0.125 0.59375 0
0.15625 0.59375 0
0.125 0.625 0
0.15625 0.625 0
0.15625 0.59375 0
0.1875 0.59375 0
0.15625 0.625 0
0.1875 0.625 0
0.1875 0.5625 0
0.21875 0.5625 0
0.1875 0.59375 0
0.21875 0.59375 0
0.21875 0.5625 0
0.25 0.5625 0
0.21875 0.59375 0
0.25 0.59375 0
0.1875 0.59375 0
0.21875 0.59375 0
0.1875 0.625 0
0.21875 0.625 0
0.21875 0.59375 0
0.25 0.59375 0
0.21875 0.625 0
0.25 0.625 0
0 0.625 0
0.03125 0.625 0
0 0.65625 0
0.03125 0.65625 0
0.03125 0.625 0
0.0625 0.625 0
0.03125 0.65625 0
0.0625 0.65625 0
0 0.65625 0
0.03125 0.65625 0
0 0.6875 0
0.03125 0.6875 0
0.03125 0.65625 0
0.0625 0.65625 0
0.03125 0.6875 0
0.0625 0.6875 0
0.0625 0.625 0
0.09375 0.625 0
0.0625 0.65625 0
0.09375 0.65625 0
0.09375 0.625 0
0.125 0.625 0
0.09375 0.65625 0
0.125 0.65625 0
0.0625 0.65625 0
0.09375 0.65625 0
0.0625 0.6875 0
0.09375 0.6875 0
0.09375 0.65625 0
0.125 0.65625 0
0.09375 0.6875 0
0.125 0.6875 0
0 0.6875 0
0.03125 0.6875 0
0 0.71875 0
0.03125 0.71875 0
0.03125 0.6875 0
0.0625 0.6875 0
0.03125 0.71875 0
0.0625 0.71875 0
0 0.71875 0
0.03125 0.71875 0
0 0.75 0
0.03125 0.75 0
0.03125 0.71875 0
0.0625 0.71875 0
0.03125 0.75 0
0.0625 0.75 0
0.0625 0.6875 0
0.09375 0.6875 0
0.0625 0.71875 0
0.09375 0.71875 0
0.09375 0.6875 0
0.125 0.6875 0
0.09375 0.71875 0
0.125 0.71875 0
0.0625 0.71875 0
0.09375 0.71875 0
0.0625 0.75 0
0.09375 0.75 0
0.09375 0.71875 0
0.125 0.71875 0
0.09375 0.75 0
0.125 0.75 0
0.125 0.625 0
0.15625 0.625 0
0.125 0.65625 0
0.15625 0.65625 0
0.15625 0.625 0
0.1875 0.625 0
0.15625 0.65625 0
0.1875 0.65625 0
0.125 0.65625 0
0.15625 0.65625 0
0.125 0.6875 0
0.15625 0.6875 0
0.15625 0.65625 0
0.1875 0.65625 0
0.15625 0.6875 0
0.1875 0.6875 0
0.1875 0.625 0
0.21875 0.625 0
0.1875 0.65625 0
0.21875 0.65625 0
0.21875 0.625 0
0.25 0.625 0
0.21875 0.65625 0
0.25 0.65625 0
0.1875 0.65625 0
0.21875 0.65625 0
0.1875 0.6875 0
0.21875 0.6875 0
0.21875 0.65625 0
0.25 0.65625 0
0.21875 0.6875 0
0.25 0.6875 0
0.125 0.6875 0
0.15625 0.6875 0
0.125 0.71875 0
0.15625 0.71875 0
0.15625 0.6875 0
0.1875 0.6875 0
0.15625 0.71875 0
0.1875 0.71875 0
0.125 0.71875 0
0.15625 0.71875 0
0.125 0.75 0
0.15625 0.75 0
0.15625 0.71875 0
0.1875 0.71875 0
0.15625 0.75 0
0.1875 0.75 0
0.1875 0.6875 0
0.21875 0.6875 0
0.1875 0.71875 0
0.21875 0.71875 0
0.21875 0.6875 0
0.25 0.6875 0
0.21875 0.71875 0
0.25 0.71875 0
0.1875 0.71875 0
0.21875 0.71875 0
0.1875 0.75 0
0.21875 0.75 0
0.21875 0.71875 0
0.25 0.71875 0
0.21875 0.75 0
0.25 0.75 0
0.25 0.5 0
0.28125 0.5 0
0.25 0.53125 0
0.28125 0.53125 0
0.28125 0.5 0
0.3125 0.5 0
0.28125 0.53125 0
0.3125 0.53125 0
0.25 0.53125 0
0.28125 0.53125 0
0.25 0.5625 0
0.28125 0.5625 0
0.28125 0.53125 0
0.3125 0.53125 0
0.28125 0.5625 0
0.3125 0.5625 0
0.3125 0.5 0
0.34375 0.5 0
0.3125 0.53125 0
0.34375 0.53125 0
0.34375 0.5 0
0.375 0.5 0
0.34375 0.53125 0
0.375 0.53125 0
0.3125 0.53125 0
0.34375 0.53125 0
0.3125 0.5625 0
0.34375 0.5625 0
0.34375 0.53125 0
0.375 0.53125 0
0.34375 0.5625 0
0.375 0.5625 0
0.25 0.5625 0
0.28125 0.5625 0
0.25 0.59375 0
0.28125 0.59375 0
0.28125 0.5625 0
0.3125 0.5625 0
0.28125 0.59375 0
0.3125 0.59375 0
0.25 0.59375 0
0.28125 0.59375 0
0.25 0.625 0
0.28125 0.625 0
0.28125 0.59375 0
0.3125 0.59375 0
0.28125 0.625 0
0.3125 0.625 0
0.3125 0.5625 0
0.34375 0.5625 0
0.3125 0.59375 0
0.34375 0.59375 0
0.34375 0.5625 0
0.375 0.5625 0
0.34375 0.59375 0
0.375 0.59375 0
0.3125 0.59375 0
0.34375 0.59375 0
0.3125 0.625 0
0.34375 0.625 0
0.34375 0.59375 0
0.375 0.59375 0
0.34375 0.625 0
0.375 0.625 0
0.375 0.5 0
0.40625 0.5 0
0.375 0.53125 0
0.40625 0.53125 0
0.40625 0.5 0
0.4375 0.5 0
0.40625 0.53125 0
0.4375 0.53125 0
0.375 0.53125 0
0.40625 0.53125 0
0.375 0.5625 0
0.40625 0.5625 0
0.40625 0.53125 0
0.4375 0.53125 0
0.40625 0.5625 0
0.4375 0.5625 0
0.4375 0.5 0
0.46875 0.5 0
0.4375 0.53125 0
0.46875 0.53125 0
0.46875 0.5 0
0.5 0.5 0
0.46875 0.53125 0
0.5 0.53125 0
0.4375 0.53125 0
0.46875 0.53125 0
0.4375 0.5625 0
0.46875 0.5625 0
0.46875 0.53125 0
0.5 0.53125 0
0.46875 0.5625 0
0.5 0.5625 0
0.375 0.5625 0
0.40625 0.5625 0
0.375 0.59375 0
0.40625 0.59375 0
0.40625 0.5625 0
0.4375 0.5625 0
0.40625 0.59375 0
0.4375 0.59375 0
0.375 0.59375 0
0.40625 0.59375 0
0.375 0.625 0
0.40625 0.625 0
0.40625 0.59375 0
0.4375 0.59375 0
0.40625 0.625 0
0.4375 0.625 0
0.4375 0.5625 0
0.46875 0.5625 0
0.4375 0.59375 0
0.46875 0.59375 0
0.46875 0.5625 0
0.5 0.5625 0
0.46875 0.59375 0
0.5 0.59375 0
0.4375 0.59375 0
0.46875 0.59375 0
0.4375 0.625 0
0.46875 0.625 0
0.46875 0.59375 0
0.5 0.59375 0
0.46875 0.625 0
0.5 0.625 0
0.25 0.625 0
0.28125 0.625 0
0.25 0.65625 0
0.28125 0.65625 0
0.28125 0.625 0
0.3125 0.625 0
0.28125 0.65625 0
0.3125 0.65625 0
0.25 0.65625 0
0.28125 0.65625 0
0.25 0.6875 0
0.28125 0.6875 0
0.28125 0.65625 0
0.3125 0.65625 0
0.28125 0.6875 0
0.3125 0.6875 0
0.3125 0.625 0
0.34375 0.625 0
0.3125 0.65625 0
0.34375 0.65625 0
0.34375 0.625 0
0.375 0.625 0
0.34375 0.65625 0
0.375 0.65625 0
0.3125 0.65625 0
0.34375 0.65625 0
0.3125 0.6875 0
0.34375 0.6875 0
0.34375 0.65625 0
0.375 0.65625 0
0.34375 0.6875 0
0.375 0.6875 0
0.25 0.6875 0
0.28125 0.6875 0
0.25 0.71875 0
0.28125 0.71875 0
0.28125 0.6875 0
0.3125 0.6875 0
0.28125 0.71875 0
0.3125 0.71875 0
0.25 0.71875 0
0.28125 0.71875 0
0.25 0.75 0
0.28125 0.75 0
0.28125 0.71875 0
0.3125 0.71875 0
0.28125 0.75 0
0.3125 0.75 0
0.3125 0.6875 0
0.34375 0.6875 0
0.3125 0.71875 0
0.34375 0.71875 0
0.34375 0.6875 0
0.375 0.6875 0
0.34375 0.71875 0
0.375 0.71875 0
0.3125 0.71875 0
0.34375 0.71875 0
0.3125 0.75 0
0.34375 0.75 0
0.34375 0.71875 0
0.375 0.71875 0
0.34375 0.75 0
0.375 0.75 0
0.375 0.625 0
0.40625 0.625 0
0.375 0.65625 0
0.40625 0.65625 0
0.40625 0.625 0
0.4375 0.625 0
0.40625 0.65625 0
0.4375 0.65625 0
0.375 0.65625 0
0.40625 0.65625 0
0.375 0.6875 0
0.40625 0.6875 0
0.40625 0.65625 0
0.4375 0.65625 0
0.40625 0.6875 0
0.4375 0.6875 0
0.4375 0.625 0
0.46875 0.625 0
0.4375 0.65625 0
0.46875 0.65625 0
0.46875 0.625 0
0.5 0.625 0
0.46875 0.65625 0
0.5 0.65625 0
0.4375 0.65625 0
0.46875 0.65625 0
0.4375 0.6875 0
0.46875 0.6875 0
0.46875 0.65625 0
0.5 0.65625 0
0.46875 0.6875 0
0.5 0.6875 0
0.375 0.6875 0
0.40625 0.6875 0
0.375 0.71875 0
0.40625 0.71875 0
0.40625 0.6875 0
0.4375 0.6875 0
0.40625 0.71875 0
0.4375 0.71875 0
0.375 0.71875 0
0.40625 0.71875 0
0.375 0.75 0
0.40625 0.75 0
0.40625 0.71875 0
0.4375 0.71875 0
0.40625 0.75 0
0.4375 0.75 0
0.4375 0.6875 0
0.46875 0.6875 0
0.4375 0.71875 0
0.46875 0.71875 0
0.46875 0.6875 0
0.5 0.6875 0
0.46875 0.71875 0
0.5 0.71875 0
0.4375 0.71875 0
0.46875 0.71875 0
0.4375 0.75 0
0.46875 0.75 0
0.46875 0.71875 0
0.5 0.71875 0
0.46875 0.75 0
0.5 0.75 0
0 0.75 0
0.03125 0.75 0
0 0.78125 0
0.03125 0.78125 0
0.03125 0.75 0
0.0625 0.75 0
0.03125 0.78125 0
0.0625 0.78125 0
0 0.78125 0
0.03125 0.78125 0
0 0.8125 0
0.03125 0.8125 0
0.03125 0.78125 0
0.0625 0.78125 0
0.03125 0.8125 0
0.0625 0.8125 0
0.0625 0.75 0
0.09375 0.75 0
0.0625 0.78125 0
0.09375 0.78125 0
0.09375 0.75 0
0.125 0.75 0
0.09375 0.78125 0
0.125 0.78125 0
0.0625 0.78125 0
0.09375 0.78125 0
0.0625 0.8125 0
0.09375 0.8125 0
0.09375 0.78125 0
0.125 0.78125 0
0.09375 0.8125 0
0.125 0.8125 0
0 0.8125 0
0.03125 0.8125 0
0 0.84375 0
0.03125 0.84375 0
0.03125 0.8125 0
0.0625 0.8125 0
0.03125 0.84375 0
0.0625 0.84375 0
0 0.84375 0
0.03125 0.84375 0
0 0.875 0
0.03125 0.875 0
0.03125 0.84375 0
0.0625 0.84375 0
0.03125 0.875 0
0.0625 0.875 0
0.0625 0.8125 0
0.09375 0.8125 0
0.0625 0.84375 0
0.09375 0.84375 0
0.09375 0.8125 0
0.125 0.8125 0
0.09375 0.84375 0
0.125 0.84375 0
0.0625 0.84375 0
0.09375 0.84375 0
0.0625 0.875 0
0.09375 0.875 0
0.09375 0.84375 0
0.125 0.84375 0
0.09375 0.875 0
0.125 0.875 0
0.125 0.75 0
0.15625 0.75 0
0.125 0.78125 0
0.15625 0.78125 0
0.15625 0.75 0
0.1875 0.75 0
0.15625 0.78125 0
0.1875 0.78125 0
0.125 0.78125 0
0.15625 0.78125 0
0.125 0.8125 0
0.15625 0.8125 0
0.15625 0.78125 0
0.1875 0.78125 0
0.15625 0.8125 0
0.1875 0.8125 0
0.1875 0.75 0
0.21875 0.75 0
0.1875 0.78125 0
0.21875 0.78125 0
0.21875 0.75 0
0.25 0.75 0
0.21875 0.78125 0
0.25 0.78125 0
0.1875 0.78125 0
0.21875 0.78125 0
0.1875 0.8125 0
0.21875 0.8125 0
0.21875 0.78125 0
0.25 0.78125 0
0.21875 0.8125 0
0.25 0.8125 0
0.125 0.8125 0
0.15625 0.8125 0
0.125 0.84375 0
0.15625 0.84375 0
0.15625 0.8125 0
[...]
POINT_DATA 4096
SCALARS x_dis double 1
LOOKUP_TABLE default
-5.16689e-07 -5.16623e-07 -1.90068e-06 -1.90058e-06 -5.16623e-07 -5.16432e-07 -1.90058e-06 -1.90028e-06 -1.90068e-06 -1.90058e-06 2.71216e-06 2.71233e-06 -1.90058e-06 -1.90028e-06 2.71233e-06 2.71279e-06 -5.16432e-07 -5.16137e-07 -1.90028e-06 -1.89982e-06 -5.16137e-07 -5.15764e-07 -1.89982e-06 -1.89923e-06 -1.90028e-06 -1.89982e-06 2.71279e-06 2.7135e-06 -1.89982e-06 -1.89923e-06 2.7135e-06 2.71439e-06 2.71216e-06 2.71233e-06 9.88037e-06 9.88062e-06 2.71233e-06 2.71279e-06 9.88062e-06 9.88132e-06 9.88037e-06 9.88062e-06 -1.35289e-06 -1.35251e-06 9.88062e-06 9.88132e-06 -1.35251e-06 -1.35147e-06 2.71279e-06 2.7135e-06 9.88132e-06 9.88238e-06 2.7135e-06 2.71439e-06 9.88238e-06 9.88368e-06 9.88132e-06 9.88238e-06 -1.35147e-06 -1.34995e-06 9.88238e-06 9.88368e-06 -1.34995e-06 -1.34812e-06 -5.15764e-07 -5.15346e-07 -1.89923e-06 -1.89858e-06 -5.15346e-07 -5.14916e-07 -1.89858e-06 -1.89792e-06 -1.89923e-06 -1.89858e-06 2.71439e-06 2.71536e-06 -1.89858e-06 -1.89792e-06 2.71536e-06 2.71634e-06 -5.14916e-07 -5.14505e-07 -1.89792e-06 -1.89729e-06 -5.14505e-07 -5.14136e-07 -1.89729e-06 -1.89671e-06 -1.89792e-06 -1.89729e-06 2.71634e-06 2.71726e-06 -1.89729e-06 -1.89671e-06 2.71726e-06 2.71812e-06 2.71439e-06 2.71536e-06 9.88368e-06 9.88509e-06 2.71536e-06 2.71634e-06 9.88509e-06 9.8865e-06 9.88368e-06 9.88509e-06 -1.34812e-06 -1.34614e-06 9.88509e-06 9.8865e-06 -1.34614e-06 -1.34418e-06 2.71634e-06 2.71726e-06 9.8865e-06 9.88782e-06 2.71726e-06 2.71812e-06 9.88782e-06 9.88903e-06 9.8865e-06 9.88782e-06 -1.34418e-06 -1.34235e-06 9.88782e-06 9.88903e-06 -1.34235e-06 -1.34072e-06 -1.35289e-06 -1.35251e-06 -4.76782e-05 -4.76775e-05 -1.35251e-06 -1.35147e-06 -4.76775e-05 -4.7676e-05 -4.76782e-05 -4.76775e-05 -0.000126428 -0.000126426 -4.76775e-05 -4.7676e-05 -0.000126426 -0.000126424 -1.35147e-06 -1.34995e-06 -4.7676e-05 -4.76738e-05 -1.34995e-06 -1.34812e-06 -4.76738e-05 -4.76713e-05 -4.7676e-05 -4.76738e-05 -0.000126424 -0.000126421 -4.76738e-05 -4.76713e-05 -0.000126421 -0.000126417 -0.000126428 -0.000126426 -0.00022468 -0.000224677 -0.000126426 -0.000126424 -0.000224677 -0.000224673 -0.00022468 -0.000224677 -0.000331212 -0.000331207 -0.000224677 -0.000224673 -0.000331207 -0.000331202 -0.000126424 -0.000126421 -0.000224673 -0.000224669 -0.000126421 -0.000126417 -0.000224669 -0.000224665 -0.000224673 -0.000224669 -0.000331202 -0.000331197 -0.000224669 -0.000224665 -0.000331197 -0.000331191 -1.34812e-06 -1.34614e-06 -4.76713e-05 -4.76687e-05 -1.34614e-06 -1.34418e-06 -4.76687e-05 -4.76661e-05 -4.76713e-05 -4.76687e-05 -0.000126417 -0.000126414 -4.76687e-05 -4.76661e-05 -0.000126414 -0.000126411 -1.34418e-06 -1.34235e-06 -4.76661e-05 -4.76636e-05 -1.34235e-06 -1.34072e-06 -4.76636e-05 -4.76615e-05 -4.76661e-05 -4.76636e-05 -0.000126411 -0.000126407 -4.76636e-05 -4.76615e-05 -0.000126407 -0.000126405 -0.000126417 -0.000126414 -0.000224665 -0.000224661 -0.000126414 -0.000126411 -0.000224661 -0.000224657 -0.000224665 -0.000224661 -0.000331191 -0.000331186 -0.000224661 -0.000224657 -0.000331186 -0.000331181 -0.000126411 -0.000126407 -0.000224657 -0.000224653 -0.000126407 -0.000126405 -0.000224653 -0.00022465 -0.000224657 -0.000224653 -0.000331181 -0.000331177 -0.000224653 -0.00022465 -0.000331177 -0.000331173 -5.14136e-07 -5.13818e-07 -1.89671e-06 -1.89614e-06 -5.13818e-07 -5.13546e-07 -1.89614e-06 -1.89553e-06 -1.89671e-06 -1.89614e-06 2.71812e-06 2.71897e-06 -1.89614e-06 -1.89553e-06 2.71897e-06 2.71981e-06 -5.13546e-07 -5.13344e-07 -1.89553e-06 -1.89534e-06 -5.13344e-07 -5.13262e-07 -1.89534e-06 -1.89699e-06 -1.89553e-06 -1.89534e-06 2.71981e-06 2.7202e-06 -1.89534e-06 -1.89699e-06 2.7202e-06 2.71894e-06 2.71812e-06 2.71897e-06 9.88903e-06 9.89017e-06 2.71897e-06 2.71981e-06 9.89017e-06 9.89122e-06 9.88903e-06 9.89017e-06 -1.34072e-06 -1.33924e-06 9.89017e-06 9.89122e-06 -1.33924e-06 -1.33791e-06 2.71981e-06 2.7202e-06 9.89122e-06 9.89186e-06 2.7202e-06 2.71894e-06 9.89186e-06 9.89154e-06 9.89122e-06 9.89186e-06 -1.33791e-06 -1.33688e-06 9.89186e-06 9.89154e-06 -1.33688e-06 -1.33657e-06 -5.13262e-07 -5.13174e-07 -1.89699e-06 -1.89915e-06 -5.13174e-07 -5.12827e-07 -1.89915e-06 -1.89069e-06 -1.89699e-06 -1.89915e-06 2.71894e-06 2.71677e-06 -1.89915e-06 -1.89069e-06 2.71677e-06 2.71888e-06 -5.12827e-07 -5.13073e-07 -1.89069e-06 -1.85551e-06 -5.13073e-07 -5.14461e-07 -1.85551e-06 -1.8051e-06 -1.89069e-06 -1.85551e-06 2.71888e-06 2.72514e-06 -1.85551e-06 -1.8051e-06 2.72514e-06 2.74799e-06 2.71894e-06 2.71677e-06 9.89154e-06 9.891e-06 2.71677e-06 2.71888e-06 9.891e-06 9.89146e-06 9.89154e-06 9.891e-06 -1.33657e-06 -1.33709e-06 9.891e-06 9.89146e-06 -1.33709e-06 -1.33673e-06 2.71888e-06 2.72514e-06 9.89146e-06 9.88979e-06 2.72514e-06 2.74799e-06 9.88979e-06 9.86943e-06 9.89146e-06 9.88979e-06 -1.33673e-06 -1.33456e-06 9.88979e-06 9.86943e-06 -1.33456e-06 -1.33041e-06 -1.34072e-06 -1.33924e-06 -4.76615e-05 -4.76596e-05 -1.33924e-06 -1.33791e-06 -4.76596e-05 -4.7658e-05 -4.76615e-05 -4.76596e-05 -0.000126405 -0.000126402 -4.76596e-05 -4.7658e-05 -0.000126402 -0.0001264 -1.33791e-06 -1.33688e-06 -4.7658e-05 -4.76566e-05 -1.33688e-06 -1.33657e-06 -4.76566e-05 -4.76555e-05 -4.7658e-05 -4.76566e-05 -0.0001264 -0.000126399 -4.76566e-05 -4.76555e-05 -0.000126399 -0.000126397 -0.000126405 -0.000126402 -0.00022465 -0.000224647 -0.000126402 -0.0001264 -0.000224647 -0.000224644 -0.00022465 -0.000224647 -0.000331173 -0.00033117 -0.000224647 -0.000224644 -0.00033117 -0.000331167 -0.0001264 -0.000126399 -0.000224644 -0.000224643 -0.000126399 -0.000126397 -0.000224643 -0.000224641 -0.000224644 -0.000224643 -0.000331167 -0.000331165 -0.000224643 -0.000224641 -0.000331165 -0.000331163 -1.33657e-06 -1.33709e-06 -4.76555e-05 -4.76553e-05 -1.33709e-06 -1.33673e-06 -4.76553e-05 -4.76561e-05 -4.76555e-05 -4.76553e-05 -0.000126397 -0.000126396 -4.76553e-05 -4.76561e-05 -0.000126396 -0.000126396 -1.33673e-06 -1.33456e-06 -4.76561e-05 -4.76559e-05 -1.33456e-06 -1.33041e-06 -4.76559e-05 -4.76526e-05 -4.76561e-05 -4.76559e-05 -0.000126396 -0.000126396 -4.76559e-05 -4.76526e-05 -0.000126396 -0.000126396 -0.000126397 -0.000126396 -0.000224641 -0.00022464 -0.000126396 -0.000126396 -0.00022464 -0.000224639 -0.000224641 -0.00022464 -0.000331163 -0.000331162 -0.00022464 -0.000224639 -0.000331162 -0.000331161 -0.000126396 -0.000126396 -0.000224639 -0.000224638 -0.000126396 -0.000126396 -0.000224638 -0.000224637 -0.000224639 -0.000224638 -0.000331161 -0.00033116 -0.000224638 -0.000224637 -0.00033116 -0.000331159 -0.000331212 -0.000331207 -0.000440391 -0.000440385 -0.000331207 -0.000331202 -0.000440385 -0.000440378 -0.000440391 -0.000440385 -0.000550207 -0.000550198 -0.000440385 -0.000440378 -0.000550198 -0.00055019 -0.000331202 -0.000331197 -0.000440378 -0.000440371 -0.000331197 -0.000331191 -0.000440371 -0.000440365 -0.000440378 -0.000440371 -0.00055019 -0.000550182 -0.000440371 -0.000440365 -0.000550182 -0.000550174 -0.000550207 -0.000550198 -0.000660148 -0.000660137 -0.000550198 -0.00055019 -0.000660137 -0.000660127 -0.000660148 -0.000660137 -0.000770114 -0.000770101 -0.000660137 -0.000660127 -0.000770101 -0.000770089 -0.00055019 -0.000550182 -0.000660127 -0.000660117 -0.000550182 -0.000550174 -0.000660117 -0.000660109 -0.000660127 -0.000660117 -0.000770089 -0.000770079 -0.000660117 -0.000660109 -0.000770079 -0.00077007 -0.000331191 -0.000331186 -0.000440365 -0.000440359 -0.000331186 -0.000331181 -0.000440359 -0.000440354 -0.000440365 -0.000440359 -0.000550174 -0.000550168 -0.000440359 -0.000440354 -0.000550168 -0.000550162 -0.000331181 -0.000331177 -0.000440354 -0.000440349 -0.000331177 -0.000331173 -0.000440349 -0.000440344 -0.000440354 -0.000440349 -0.000550162 -0.000550157 -0.000440349 -0.000440344 -0.000550157 -0.000550152 -0.000550174 -0.000550168 -0.000660109 -0.000660102 -0.000550168 -0.000550162 -0.000660102 -0.000660097 -0.000660109 -0.000660102 -0.00077007 -0.000770063 -0.000660102 -0.000660097 -0.000770063 -0.000770058 -0.000550162 -0.000550157 -0.000660097 -0.000660091 -0.000550157 -0.000550152 -0.000660091 -0.000660087 -0.000660097 -0.000660091 -0.000770058 -0.000770053 -0.000660091 -0.000660087 -0.000770053 -0.000770049 -0.000770114 -0.000770101 -0.000880087 -0.000880071 -0.000770101 -0.000770089 -0.000880071 -0.000880057 -0.000880087 -0.000880071 -0.000990066 -0.000990048 -0.000880071 -0.000880057 -0.000990048 -0.000990034 -0.000770089 -0.000770079 -0.000880057 -0.000880047 -0.000770079 -0.00077007 -0.000880047 -0.000880039 -0.000880057 -0.000880047 -0.000990034 -0.000990025 -0.000880047 -0.000880039 -0.000990025 -0.000990018 -0.000990066 -0.000990048 -0.00110005 -0.00110002 -0.000990048 -0.000990034 -0.00110002 -0.00110001 -0.00110005 -0.00110002 -0.00121 -0.00121 -0.00110002 -0.00110001 -0.00121 -0.00121 -0.000990034 -0.000990025 -0.00110001 -0.00110001 -0.000990025 -0.000990018 -0.00110001 -0.0011 -0.00110001 -0.00110001 -0.00121 -0.00121 -0.00110001 -0.0011 -0.00121 -0.00121 -0.00077007 -0.000770063 -0.000880039 -0.000880033 -0.000770063 -0.000770058 -0.000880033 -0.000880028 -0.000880039 -0.000880033 -0.000990018 -0.000990013 -0.000880033 -0.000880028 -0.000990013 -0.00099001 -0.000770058 -0.000770053 -0.000880028 -0.000880024 -0.000770053 -0.000770049 -0.000880024 -0.000880021 -0.000880028 -0.000880024 -0.00099001 -0.000990007 -0.000880024 -0.000880021 -0.000990007 -0.000990005 -0.000990018 -0.000990013 -0.0011 -0.0011 -0.000990013 -0.00099001 -0.0011 -0.0011 -0.0011 -0.0011 -0.00121 -0.00121 -0.0011 -0.0011 -0.00121 -0.00121 -0.00099001 -0.000990007 -0.0011 -0.0011 -0.000990007 -0.000990005 -0.0011 -0.0011 -0.0011 -0.0011 -0.00121 -0.00121 -0.0011 -0.0011 -0.00121 -0.00121 -0.000331173 -0.00033117 -0.000440344 -0.000440341 -0.00033117 -0.000331167 -0.000440341 -0.000440338 -0.000440344 -0.000440341 -0.000550152 -0.000550149 -0.000440341 -0.000440338 -0.000550149 -0.000550145 -0.000331167 -0.000331165 -0.000440338 -0.000440335 -0.000331165 -0.000331163 -0.000440335 -0.000440333 -0.000440338 -0.000440335 -0.000550145 -0.000550143 -0.000440335 -0.000440333 -0.000550143 -0.000550141 -0.000550152 -0.000550149 -0.000660087 -0.000660083 -0.000550149 -0.000550145 -0.000660083 -0.00066008 -0.000660087 -0.000660083 -0.000770049 -0.000770046 -0.000660083 -0.00066008 -0.000770046 -0.000770043 -0.000550145 -0.000550143 -0.00066008 -0.000660078 -0.000550143 -0.000550141 -0.000660078 -0.000660076 -0.00066008 -0.000660078 -0.000770043 -0.000770041 -0.000660078 -0.000660076 -0.000770041 -0.000770039 -0.000331163 -0.000331162 -0.000440333 -0.000440332 -0.000331162 -0.000331161 -0.000440332 -0.000440331 -0.000440333 -0.000440332 -0.000550141 -0.000550139 -0.000440332 -0.000440331 -0.000550139 -0.000550138 -0.000331161 -0.00033116 -0.000440331 -0.00044033 -0.00033116 -0.000331159 -0.00044033 -0.000440329 -0.000440331 -0.00044033 -0.000550138 -0.000550137 -0.00044033 -0.000440329 -0.000550137 -0.000550136 -0.000550141 -0.000550139 -0.000660076 -0.000660074 -0.000550139 -0.000550138 -0.000660074 -0.000660073 -0.000660076 -0.000660074 -0.000770039 -0.000770037 -0.000660074 -0.000660073 -0.000770037 -0.000770036 -0.000550138 -0.000550137 -0.000660073 -0.000660072 -0.000550137 -0.000550136 -0.000660072 -0.000660071 -0.000660073 -0.000660072 -0.000770036 -0.000770035 -0.000660072 -0.000660071 -0.000770035 -0.000770034 -0.000770049 -0.000770046 -0.000880021 -0.000880018 -0.000770046 -0.000770043 -0.000880018 -0.000880016 -0.000880021 -0.000880018 -0.000990005 -0.000990003 -0.000880018 -0.000880016 -0.000990003 -0.000990001 -0.000770043 -0.000770041 -0.000880016 -0.000880014 -0.000770041 -0.000770039 -0.000880014 -0.000880012 -0.000880016 -0.000880014 -0.000990001 -0.00099 -0.000880014 -0.000880012 -0.00099 -0.000989999 -0.000990005 -0.000990003 -0.0011 -0.0011 -0.000990003 -0.000990001 -0.0011 -0.0011 -0.0011 -0.0011 -0.00121 -0.00121 -0.0011 -0.0011 -0.00121 -0.00121 -0.000990001 -0.00099 -0.0011 -0.0011 -0.00099 -0.000989999 -0.0011 -0.00109999 -0.0011 -0.0011 -0.00121 -0.00121 -0.0011 -0.00109999 -0.00121 -0.00121 -0.000770039 -0.000770037 -0.000880012 -0.000880011 -0.000770037 -0.000770036 -0.000880011 -0.00088001 -0.000880012 -0.000880011 -0.000989999 -0.000989998 -0.000880011 -0.00088001 -0.000989998 -0.000989997 -0.000770036 -0.000770035 -0.00088001 -0.000880009 -0.000770035 -0.000770034 -0.000880009 -0.000880008 -0.00088001 -0.000880009 -0.000989997 -0.000989996 -0.000880009 -0.000880008 -0.000989996 -0.000989996 -0.000989999 -0.000989998 -0.00109999 -0.00109999 -0.000989998 -0.000989997 -0.00109999 -0.00109999 -0.00109999 -0.00109999 -0.00121 -0.00121 -0.00109999 -0.00109999 -0.00121 -0.00121 -0.000989997 -0.000989996 -0.00109999 -0.00109999 -0.000989996 -0.000989996 -0.00109999 -0.00109999 -0.00109999 -0.00109999 -0.00121 -0.00121 -0.00109999 -0.00109999 -0.00121 -0.00121 -5.14461e-07 -1.18662e-06 -1.8051e-06 -1.60926e-06 -1.18662e-06 -1.16161e-06 -1.60926e-06 -1.52341e-06 -1.8051e-06 -1.60926e-06 2.74799e-06 2.74751e-06 -1.60926e-06 -1.52341e-06 2.74751e-06 2.74596e-06 -1.16161e-06 -1.04558e-06 -1.52341e-06 -1.45762e-06 -1.04558e-06 -1.00839e-06 -1.45762e-06 -1.43751e-06 -1.52341e-06 -1.45762e-06 2.74596e-06 2.73821e-06 -1.45762e-06 -1.43751e-06 2.73821e-06 2.7375e-06 2.74799e-06 2.74751e-06 9.86943e-06 9.83722e-06 2.74751e-06 2.74596e-06 9.83722e-06 9.81406e-06 9.86943e-06 9.83722e-06 -1.33041e-06 -1.32437e-06 9.83722e-06 9.81406e-06 -1.32437e-06 -1.31536e-06 2.74596e-06 2.73821e-06 9.81406e-06 9.813e-06 2.73821e-06 2.7375e-06 9.813e-06 9.81627e-06 9.81406e-06 9.813e-06 -1.31536e-06 -1.30885e-06 9.813e-06 9.81627e-06 -1.30885e-06 -1.308e-06 -1.00839e-06 -1.01405e-06 -1.43751e-06 -1.448e-06 -1.01405e-06 -1.02466e-06 -1.448e-06 -1.45696e-06 -1.43751e-06 -1.448e-06 2.7375e-06 2.73383e-06 -1.448e-06 -1.45696e-06 2.73383e-06 2.73084e-06 -1.02466e-06 -1.02723e-06 -1.45696e-06 -1.45701e-06 -1.02723e-06 -1.02471e-06 -1.45701e-06 -1.45469e-06 -1.45696e-06 -1.45701e-06 2.73084e-06 2.73117e-06 -1.45701e-06 -1.45469e-06 2.73117e-06 2.7326e-06 2.7375e-06 2.73383e-06 9.81627e-06 9.81601e-06 2.73383e-06 2.73084e-06 9.81601e-06 9.81472e-06 9.81627e-06 9.81601e-06 -1.308e-06 -1.30982e-06 9.81601e-06 9.81472e-06 -1.30982e-06 -1.31002e-06 2.73084e-06 2.73117e-06 9.81472e-06 9.81515e-06 2.73117e-06 2.7326e-06 9.81515e-06 9.81665e-06 9.81472e-06 9.81515e-06 -1.31002e-06 -1.30852e-06 9.81515e-06 9.81665e-06 -1.30852e-06 -1.30663e-06 -1.33041e-06 -1.32437e-06 -4.76526e-05 -4.76472e-05 -1.32437e-06 -1.31536e-06 -4.76472e-05 -4.76439e-05 -4.76526e-05 -4.76472e-05 -0.000126396 -0.000126398 -4.76472e-05 -4.76439e-05 -0.000126398 -0.000126399 -1.31536e-06 -1.30885e-06 -4.76439e-05 -4.76444e-05 -1.30885e-06 -1.308e-06 -4.76444e-05 -4.76463e-05 -4.76439e-05 -4.76444e-05 -0.000126399 -0.0001264 -4.76444e-05 -4.76463e-05 -0.0001264 -0.000126399 -0.000126396 -0.000126398 -0.000224637 -0.000224637 -0.000126398 -0.000126399 -0.000224637 -0.000224636 -0.000224637 -0.000224637 -0.000331159 -0.000331158 -0.000224637 -0.000224636 -0.000331158 -0.000331157 -0.000126399 -0.0001264 -0.000224636 -0.000224635 -0.0001264 -0.000126399 -0.000224635 -0.000224633 -0.000224636 -0.000224635 -0.000331157 -0.000331156 -0.000224635 -0.000224633 -0.000331156 -0.000331155 -1.308e-06 -1.30982e-06 -4.76463e-05 -4.76463e-05 -1.30982e-06 -1.31002e-06 -4.76463e-05 -4.76447e-05 -4.76463e-05 -4.76463e-05 -0.000126399 -0.000126397 -4.76463e-05 -4.76447e-05 -0.000126397 -0.000126395 -1.31002e-06 -1.30852e-06 -4.76447e-05 -4.76426e-05 -1.30852e-06 -1.30663e-06 -4.76426e-05 -4.76406e-05 -4.76447e-05 -4.76426e-05 -0.000126395 -0.000126393 -4.76426e-05 -4.76406e-05 -0.000126393 -0.000126391 -0.000126399 -0.000126397 -0.000224633 -0.000224632 -0.000126397 -0.000126395 -0.000224632 -0.00022463 -0.000224633 -0.000224632 -0.000331155 -0.000331154 -0.000224632 -0.00022463 -0.000331154 -0.000331151 -0.000126395 -0.000126393 -0.00022463 -0.000224628 -0.000126393 -0.000126391 -0.000224628 -0.000224625 -0.00022463 -0.000224628 -0.000331151 -0.000331149 -0.000224628 -0.000224625 -0.000331149 -0.000331145 -1.02471e-06 -1.02271e-06 -1.45469e-06 -1.4535e-06 -1.02271e-06 -1.02198e-06 -1.4535e-06 -1.453e-06 -1.45469e-06 -1.4535e-06 2.7326e-06 2.73371e-06 -1.4535e-06 -1.453e-06 2.73371e-06 2.73454e-06 -1.02198e-06 -1.02132e-06 -1.453e-06 -1.45243e-06 -1.02132e-06 -1.02043e-06 -1.45243e-06 -1.4517e-06 -1.453e-06 -1.45243e-06 2.73454e-06 2.73535e-06 -1.45243e-06 -1.4517e-06 2.73535e-06 2.73622e-06 2.7326e-06 2.73371e-06 9.81665e-06 9.81813e-06 2.73371e-06 2.73454e-06 9.81813e-06 9.81938e-06 9.81665e-06 9.81813e-06 -1.30663e-06 -1.30488e-06 9.81813e-06 9.81938e-06 -1.30488e-06 -1.30315e-06 2.73454e-06 2.73535e-06 9.81938e-06 9.82062e-06 2.73535e-06 2.73622e-06 9.82062e-06 9.82193e-06 9.81938e-06 9.82062e-06 -1.30315e-06 -1.30128e-06 9.82062e-06 9.82193e-06 -1.30128e-06 -1.29934e-06 -1.02043e-06 -1.01957e-06 -1.4517e-06 -1.45102e-06 -1.01957e-06 -1.01891e-06 -1.45102e-06 -1.4505e-06 -1.4517e-06 -1.45102e-06 2.73622e-06 2.73704e-06 -1.45102e-06 -1.4505e-06 2.73704e-06 2.73771e-06 -1.01891e-06 -1.0185e-06 -1.4505e-06 -1.45017e-06 -1.0185e-06 -1.01836e-06 -1.45017e-06 -1.45005e-06 -1.4505e-06 -1.45017e-06 2.73771e-06 2.73814e-06 -1.45017e-06 -1.45005e-06 2.73814e-06 2.73828e-06 2.73622e-06 2.73704e-06 9.82193e-06 9.82317e-06 2.73704e-06 2.73771e-06 9.82317e-06 9.82417e-06 9.82193e-06 9.82317e-06 -1.29934e-06 -1.29753e-06 9.82317e-06 9.82417e-06 -1.29753e-06 -1.29603e-06 2.73771e-06 2.73814e-06 9.82417e-06 9.82483e-06 2.73814e-06 2.73828e-06 9.82483e-06 9.82506e-06 9.82417e-06 9.82483e-06 -1.29603e-06 -1.29502e-06 9.82483e-06 9.82506e-06 -1.29502e-06 -1.29465e-06 -1.30663e-06 -1.30488e-06 -4.76406e-05 -4.76385e-05 -1.30488e-06 -1.30315e-06 -4.76385e-05 -4.76361e-05 -4.76406e-05 -4.76385e-05 -0.000126391 -0.000126388 -4.76385e-05 -4.76361e-05 -0.000126388 -0.000126385 -1.30315e-06 -1.30128e-06 -4.76361e-05 -4.76335e-05 -1.30128e-06 -1.29934e-06 -4.76335e-05 -4.76309e-05 -4.76361e-05 -4.76335e-05 -0.000126385 -0.000126382 -4.76335e-05 -4.76309e-05 -0.000126382 -0.000126378 -0.000126391 -0.000126388 -0.000224625 -0.000224621 -0.000126388 -0.000126385 -0.000224621 -0.000224618 -0.000224625 -0.000224621 -0.000331145 -0.000331141 -0.000224621 -0.000224618 -0.000331141 -0.000331137 -0.000126385 -0.000126382 -0.000224618 -0.000224613 -0.000126382 -0.000126378 -0.000224613 -0.000224609 -0.000224618 -0.000224613 -0.000331137 -0.000331132 -0.000224613 -0.000224609 -0.000331132 -0.000331127 -1.29934e-06 -1.29753e-06 -4.76309e-05 -4.76284e-05 -1.29753e-06 -1.29603e-06 -4.76284e-05 -4.76262e-05 -4.76309e-05 -4.76284e-05 -0.000126378 -0.000126375 -4.76284e-05 -4.76262e-05 -0.000126375 -0.000126372 -1.29603e-06 -1.29502e-06 -4.76262e-05 -4.76247e-05 -1.29502e-06 -1.29465e-06 -4.76247e-05 -4.7624e-05 -4.76262e-05 -4.76247e-05 -0.000126372 -0.000126369 -4.76247e-05 -4.7624e-05 -0.000126369 -0.000126368 -0.000126378 -0.000126375 -0.000224609 -0.000224605 -0.000126375 -0.000126372 -0.000224605 -0.000224601 -0.000224609 -0.000224605 -0.000331127 -0.000331122 -0.000224605 -0.000224601 -0.000331122 -0.000331116 -0.000126372 -0.000126369 -0.000224601 -0.000224597 -0.000126369 -0.000126368 -0.000224597 -0.000224594 -0.000224601 -0.000224597 -0.000331116 -0.000331111 -0.000224597 -0.000224594 -0.000331111 -0.000331107 -0.000331159 -0.000331158 -0.000440329 -0.000440328 -0.000331158 -0.000331157 -0.000440328 -0.000440328 -0.000440329 -0.000440328 -0.000550136 -0.000550135 -0.000440328 -0.000440328 -0.000550135 -0.000550134 -0.000331157 -0.000331156 -0.000440328 -0.000440327 -0.000331156 -0.000331155 -0.000440327 -0.000440325 -0.000440328 -0.000440327 -0.000550134 -0.000550133 -0.000440327 -0.000440325 -0.000550133 -0.000550131 -0.000550136 -0.000550135 -0.000660071 -0.00066007 -0.000550135 -0.000550134 -0.00066007 -0.000660069 -0.000660071 -0.00066007 -0.000770034 -0.000770033 -0.00066007 -0.000660069 -0.000770033 -0.000770032 -0.000550134 -0.000550133 -0.000660069 -0.000660068 -0.000550133 -0.000550131 -0.000660068 -0.