# vtk DataFile Version 3.0
#This file was generated by the deal.II library on 2022/11/16 at 21:17:03
ASCII
DATASET UNSTRUCTURED_GRID

POINTS 4096 double
0 0.5 0
0.03125 0.5 0
0 0.53125 0
0.03125 0.53125 0
0.03125 0.5 0
0.0625 0.5 0
0.03125 0.53125 0
0.0625 0.53125 0
0 0.53125 0
0.03125 0.53125 0
0 0.5625 0
0.03125 0.5625 0
0.03125 0.53125 0
0.0625 0.53125 0
0.03125 0.5625 0
0.0625 0.5625 0
0.0625 0.5 0
0.09375 0.5 0
0.0625 0.53125 0
0.09375 0.53125 0
0.09375 0.5 0
0.125 0.5 0
0.09375 0.53125 0
0.125 0.53125 0
0.0625 0.53125 0
0.09375 0.53125 0
0.0625 0.5625 0
0.09375 0.5625 0
0.09375 0.53125 0
0.125 0.53125 0
0.09375 0.5625 0
0.125 0.5625 0
0 0.5625 0
0.03125 0.5625 0
0 0.59375 0
0.03125 0.59375 0
0.03125 0.5625 0
0.0625 0.5625 0
0.03125 0.59375 0
0.0625 0.59375 0
0 0.59375 0
0.03125 0.59375 0
0 0.625 0
0.03125 0.625 0
0.03125 0.59375 0
0.0625 0.59375 0
0.03125 0.625 0
0.0625 0.625 0
0.0625 0.5625 0
0.09375 0.5625 0
0.0625 0.59375 0
0.09375 0.59375 0
0.09375 0.5625 0
0.125 0.5625 0
0.09375 0.59375 0
0.125 0.59375 0
0.0625 0.59375 0
0.09375 0.59375 0
0.0625 0.625 0
0.09375 0.625 0
0.09375 0.59375 0
0.125 0.59375 0
0.09375 0.625 0
0.125 0.625 0
0.125 0.5 0
0.15625 0.5 0
0.125 0.53125 0
0.15625 0.53125 0
0.15625 0.5 0
0.1875 0.5 0
0.15625 0.53125 0
0.1875 0.53125 0
0.125 0.53125 0
0.15625 0.53125 0
0.125 0.5625 0
0.15625 0.5625 0
0.15625 0.53125 0
0.1875 0.53125 0
0.15625 0.5625 0
0.1875 0.5625 0
0.1875 0.5 0
0.21875 0.5 0
0.1875 0.53125 0
0.21875 0.53125 0
0.21875 0.5 0
0.25 0.5 0
0.21875 0.53125 0
0.25 0.53125 0
0.1875 0.53125 0
0.21875 0.53125 0
0.1875 0.5625 0
0.21875 0.5625 0
0.21875 0.53125 0
0.25 0.53125 0
0.21875 0.5625 0
0.25 0.5625 0
0.125 0.5625 0
0.15625 0.5625 0
0.125 0.59375 0
0.15625 0.59375 0
0.15625 0.5625 0
0.1875 0.5625 0
0.15625 0.59375 0
0.1875 0.59375 0
0.125 0.59375 0
0.15625 0.59375 0
0.125 0.625 0
0.15625 0.625 0
0.15625 0.59375 0
0.1875 0.59375 0
0.15625 0.625 0
0.1875 0.625 0
0.1875 0.5625 0
0.21875 0.5625 0
0.1875 0.59375 0
0.21875 0.59375 0
0.21875 0.5625 0
0.25 0.5625 0
0.21875 0.59375 0
0.25 0.59375 0
0.1875 0.59375 0
0.21875 0.59375 0
0.1875 0.625 0
0.21875 0.625 0
0.21875 0.59375 0
0.25 0.59375 0
0.21875 0.625 0
0.25 0.625 0
0 0.625 0
0.03125 0.625 0
0 0.65625 0
0.03125 0.65625 0
0.03125 0.625 0
0.0625 0.625 0
0.03125 0.65625 0
0.0625 0.65625 0
0 0.65625 0
0.03125 0.65625 0
0 0.6875 0
0.03125 0.6875 0
0.03125 0.65625 0
0.0625 0.65625 0
0.03125 0.6875 0
0.0625 0.6875 0
0.0625 0.625 0
0.09375 0.625 0
0.0625 0.65625 0
0.09375 0.65625 0
0.09375 0.625 0
0.125 0.625 0
0.09375 0.65625 0
0.125 0.65625 0
0.0625 0.65625 0
0.09375 0.65625 0
0.0625 0.6875 0
0.09375 0.6875 0
0.09375 0.65625 0
0.125 0.65625 0
0.09375 0.6875 0
0.125 0.6875 0
0 0.6875 0
0.03125 0.6875 0
0 0.71875 0
0.03125 0.71875 0
0.03125 0.6875 0
0.0625 0.6875 0
0.03125 0.71875 0
0.0625 0.71875 0
0 0.71875 0
0.03125 0.71875 0
0 0.75 0
0.03125 0.75 0
0.03125 0.71875 0
0.0625 0.71875 0
0.03125 0.75 0
0.0625 0.75 0
0.0625 0.6875 0
0.09375 0.6875 0
0.0625 0.71875 0
0.09375 0.71875 0
0.09375 0.6875 0
0.125 0.6875 0
0.09375 0.71875 0
0.125 0.71875 0
0.0625 0.71875 0
0.09375 0.71875 0
0.0625 0.75 0
0.09375 0.75 0
0.09375 0.71875 0
0.125 0.71875 0
0.09375 0.75 0
0.125 0.75 0
0.125 0.625 0
0.15625 0.625 0
0.125 0.65625 0
0.15625 0.65625 0
0.15625 0.625 0
0.1875 0.625 0
0.15625 0.65625 0
0.1875 0.65625 0
0.125 0.65625 0
0.15625 0.65625 0
0.125 0.6875 0
0.15625 0.6875 0
0.15625 0.65625 0
0.1875 0.65625 0
0.15625 0.6875 0
0.1875 0.6875 0
0.1875 0.625 0
0.21875 0.625 0
0.1875 0.65625 0
0.21875 0.65625 0
0.21875 0.625 0
0.25 0.625 0
0.21875 0.65625 0
0.25 0.65625 0
0.1875 0.65625 0
0.21875 0.65625 0
0.1875 0.6875 0
0.21875 0.6875 0
0.21875 0.65625 0
0.25 0.65625 0
0.21875 0.6875 0
0.25 0.6875 0
0.125 0.6875 0
0.15625 0.6875 0
0.125 0.71875 0
0.15625 0.71875 0
0.15625 0.6875 0
0.1875 0.6875 0
0.15625 0.71875 0
0.1875 0.71875 0
0.125 0.71875 0
0.15625 0.71875 0
0.125 0.75 0
0.15625 0.75 0
0.15625 0.71875 0
0.1875 0.71875 0
0.15625 0.75 0
0.1875 0.75 0
0.1875 0.6875 0
0.21875 0.6875 0
0.1875 0.71875 0
0.21875 0.71875 0
0.21875 0.6875 0
0.25 0.6875 0
0.21875 0.71875 0
0.25 0.71875 0
0.1875 0.71875 0
0.21875 0.71875 0
0.1875 0.75 0
0.21875 0.75 0
0.21875 0.71875 0
0.25 0.71875 0
0.21875 0.75 0
0.25 0.75 0
0.25 0.5 0
0.28125 0.5 0
0.25 0.53125 0
0.28125 0.53125 0
0.28125 0.5 0
0.3125 0.5 0
0.28125 0.53125 0
0.3125 0.53125 0
0.25 0.53125 0
0.28125 0.53125 0
0.25 0.5625 0
0.28125 0.5625 0
0.28125 0.53125 0
0.3125 0.53125 0
0.28125 0.5625 0
0.3125 0.5625 0
0.3125 0.5 0
0.34375 0.5 0
0.3125 0.53125 0
0.34375 0.53125 0
0.34375 0.5 0
0.375 0.5 0
0.34375 0.53125 0
0.375 0.53125 0
0.3125 0.53125 0
0.34375 0.53125 0
0.3125 0.5625 0
0.34375 0.5625 0
0.34375 0.53125 0
0.375 0.53125 0
0.34375 0.5625 0
0.375 0.5625 0
0.25 0.5625 0
0.28125 0.5625 0
0.25 0.59375 0
0.28125 0.59375 0
0.28125 0.5625 0
0.3125 0.5625 0
0.28125 0.59375 0
0.3125 0.59375 0
0.25 0.59375 0
0.28125 0.59375 0
0.25 0.625 0
0.28125 0.625 0
0.28125 0.59375 0
0.3125 0.59375 0
0.28125 0.625 0
0.3125 0.625 0
0.3125 0.5625 0
0.34375 0.5625 0
0.3125 0.59375 0
0.34375 0.59375 0
0.34375 0.5625 0
0.375 0.5625 0
0.34375 0.59375 0
0.375 0.59375 0
0.3125 0.59375 0
0.34375 0.59375 0
0.3125 0.625 0
0.34375 0.625 0
0.34375 0.59375 0
0.375 0.59375 0
0.34375 0.625 0
0.375 0.625 0
0.375 0.5 0
0.40625 0.5 0
0.375 0.53125 0
0.40625 0.53125 0
0.40625 0.5 0
0.4375 0.5 0
0.40625 0.53125 0
0.4375 0.53125 0
0.375 0.53125 0
0.40625 0.53125 0
0.375 0.5625 0
0.40625 0.5625 0
0.40625 0.53125 0
0.4375 0.53125 0
0.40625 0.5625 0
0.4375 0.5625 0
0.4375 0.5 0
0.46875 0.5 0
0.4375 0.53125 0
0.46875 0.53125 0
0.46875 0.5 0
0.5 0.5 0
0.46875 0.53125 0
0.5 0.53125 0
0.4375 0.53125 0
0.46875 0.53125 0
0.4375 0.5625 0
0.46875 0.5625 0
0.46875 0.53125 0
0.5 0.53125 0
0.46875 0.5625 0
0.5 0.5625 0
0.375 0.5625 0
0.40625 0.5625 0
0.375 0.59375 0
0.40625 0.59375 0
0.40625 0.5625 0
0.4375 0.5625 0
0.40625 0.59375 0
0.4375 0.59375 0
0.375 0.59375 0
0.40625 0.59375 0
0.375 0.625 0
0.40625 0.625 0
0.40625 0.59375 0
0.4375 0.59375 0
0.40625 0.625 0
0.4375 0.625 0
0.4375 0.5625 0
0.46875 0.5625 0
0.4375 0.59375 0
0.46875 0.59375 0
0.46875 0.5625 0
0.5 0.5625 0
0.46875 0.59375 0
0.5 0.59375 0
0.4375 0.59375 0
0.46875 0.59375 0
0.4375 0.625 0
0.46875 0.625 0
0.46875 0.59375 0
0.5 0.59375 0
0.46875 0.625 0
0.5 0.625 0
0.25 0.625 0
0.28125 0.625 0
0.25 0.65625 0
0.28125 0.65625 0
0.28125 0.625 0
0.3125 0.625 0
0.28125 0.65625 0
0.3125 0.65625 0
0.25 0.65625 0
0.28125 0.65625 0
0.25 0.6875 0
0.28125 0.6875 0
0.28125 0.65625 0
0.3125 0.65625 0
0.28125 0.6875 0
0.3125 0.6875 0
0.3125 0.625 0
0.34375 0.625 0
0.3125 0.65625 0
0.34375 0.65625 0
0.34375 0.625 0
0.375 0.625 0
0.34375 0.65625 0
0.375 0.65625 0
0.3125 0.65625 0
0.34375 0.65625 0
0.3125 0.6875 0
0.34375 0.6875 0
0.34375 0.65625 0
0.375 0.65625 0
0.34375 0.6875 0
0.375 0.6875 0
0.25 0.6875 0
0.28125 0.6875 0
0.25 0.71875 0
0.28125 0.71875 0
0.28125 0.6875 0
0.3125 0.6875 0
0.28125 0.71875 0
0.3125 0.71875 0
0.25 0.71875 0
0.28125 0.71875 0
0.25 0.75 0
0.28125 0.75 0
0.28125 0.71875 0
0.3125 0.71875 0
0.28125 0.75 0
0.3125 0.75 0
0.3125 0.6875 0
0.34375 0.6875 0
0.3125 0.71875 0
0.34375 0.71875 0
0.34375 0.6875 0
0.375 0.6875 0
0.34375 0.71875 0
0.375 0.71875 0
0.3125 0.71875 0
0.34375 0.71875 0
0.3125 0.75 0
0.34375 0.75 0
0.34375 0.71875 0
0.375 0.71875 0
0.34375 0.75 0
0.375 0.75 0
0.375 0.625 0
0.40625 0.625 0
0.375 0.65625 0
0.40625 0.65625 0
0.40625 0.625 0
0.4375 0.625 0
0.40625 0.65625 0
0.4375 0.65625 0
0.375 0.65625 0
0.40625 0.65625 0
0.375 0.6875 0
0.40625 0.6875 0
0.40625 0.65625 0
0.4375 0.65625 0
0.40625 0.6875 0
0.4375 0.6875 0
0.4375 0.625 0
0.46875 0.625 0
0.4375 0.65625 0
0.46875 0.65625 0
0.46875 0.625 0
0.5 0.625 0
0.46875 0.65625 0
0.5 0.65625 0
0.4375 0.65625 0
0.46875 0.65625 0
0.4375 0.6875 0
0.46875 0.6875 0
0.46875 0.65625 0
0.5 0.65625 0
0.46875 0.6875 0
0.5 0.6875 0
0.375 0.6875 0
0.40625 0.6875 0
0.375 0.71875 0
0.40625 0.71875 0
0.40625 0.6875 0
0.4375 0.6875 0
0.40625 0.71875 0
0.4375 0.71875 0
0.375 0.71875 0
0.40625 0.71875 0
0.375 0.75 0
0.40625 0.75 0
0.40625 0.71875 0
0.4375 0.71875 0
0.40625 0.75 0
0.4375 0.75 0
0.4375 0.6875 0
0.46875 0.6875 0
0.4375 0.71875 0
0.46875 0.71875 0
0.46875 0.6875 0
0.5 0.6875 0
0.46875 0.71875 0
0.5 0.71875 0
0.4375 0.71875 0
0.46875 0.71875 0
0.4375 0.75 0
0.46875 0.75 0
0.46875 0.71875 0
0.5 0.71875 0
0.46875 0.75 0
0.5 0.75 0
0 0.75 0
0.03125 0.75 0
0 0.78125 0
0.03125 0.78125 0
0.03125 0.75 0
0.0625 0.75 0
0.03125 0.78125 0
0.0625 0.78125 0
0 0.78125 0
0.03125 0.78125 0
0 0.8125 0
0.03125 0.8125 0
0.03125 0.78125 0
0.0625 0.78125 0
0.03125 0.8125 0
0.0625 0.8125 0
0.0625 0.75 0
0.09375 0.75 0
0.0625 0.78125 0
0.09375 0.78125 0
0.09375 0.75 0
0.125 0.75 0
0.09375 0.78125 0
0.125 0.78125 0
0.0625 0.78125 0
0.09375 0.78125 0
0.0625 0.8125 0
0.09375 0.8125 0
0.09375 0.78125 0
0.125 0.78125 0
0.09375 0.8125 0
0.125 0.8125 0
0 0.8125 0
0.03125 0.8125 0
0 0.84375 0
0.03125 0.84375 0
0.03125 0.8125 0
0.0625 0.8125 0
0.03125 0.84375 0
0.0625 0.84375 0
0 0.84375 0
0.03125 0.84375 0
0 0.875 0
0.03125 0.875 0
0.03125 0.84375 0
0.0625 0.84375 0
0.03125 0.875 0
0.0625 0.875 0
0.0625 0.8125 0
0.09375 0.8125 0
0.0625 0.84375 0
0.09375 0.84375 0
0.09375 0.8125 0
0.125 0.8125 0
0.09375 0.84375 0
0.125 0.84375 0
0.0625 0.84375 0
0.09375 0.84375 0
0.0625 0.875 0
0.09375 0.875 0
0.09375 0.84375 0
0.125 0.84375 0
0.09375 0.875 0
0.125 0.875 0
0.125 0.75 0
0.15625 0.75 0
0.125 0.78125 0
0.15625 0.78125 0
0.15625 0.75 0
0.1875 0.75 0
0.15625 0.78125 0
0.1875 0.78125 0
0.125 0.78125 0
0.15625 0.78125 0
0.125 0.8125 0
0.15625 0.8125 0
0.15625 0.78125 0
0.1875 0.78125 0
0.15625 0.8125 0
0.1875 0.8125 0
0.1875 0.75 0
0.21875 0.75 0
0.1875 0.78125 0
0.21875 0.78125 0
0.21875 0.75 0
0.25 0.75 0
0.21875 0.78125 0
0.25 0.78125 0
0.1875 0.78125 0
0.21875 0.78125 0
0.1875 0.8125 0
0.21875 0.8125 0
0.21875 0.78125 0
0.25 0.78125 0
0.21875 0.8125 0
0.25 0.8125 0
0.125 0.8125 0
0.15625 0.8125 0
0.125 0.84375 0
0.15625 0.84375 0
0.15625 0.8125 0
[...]
POINT_DATA 4096
SCALARS x_dis double 1
LOOKUP_TABLE default
1.76691e-12 1.76691e-12 -5.5627e-12 -5.5627e-12 1.76691e-12 1.76691e-12 -5.5627e-12 -5.5627e-12 -5.5627e-12 -5.5627e-12 1.34007e-11 1.34007e-11 -5.5627e-12 -5.5627e-12 1.34007e-11 1.34007e-11 1.76691e-12 1.76691e-12 -5.5627e-12 -5.5627e-12 1.76691e-12 1.76691e-12 -5.5627e-12 -5.5627e-12 -5.5627e-12 -5.5627e-12 1.34007e-11 1.34007e-11 -5.5627e-12 -5.5627e-12 1.34007e-11 1.34007e-11 1.34007e-11 1.34007e-11 -1.51169e-11 -1.51169e-11 1.34007e-11 1.34007e-11 -1.51169e-11 -1.51169e-11 -1.51169e-11 -1.51169e-11 -7.26636e-11 -7.26636e-11 -1.51169e-11 -1.51169e-11 -7.26636e-11 -7.26636e-11 1.34007e-11 1.34007e-11 -1.51169e-11 -1.51169e-11 1.34007e-11 1.34007e-11 -1.51169e-11 -1.51169e-11 -1.51169e-11 -1.51169e-11 -7.26636e-11 -7.26636e-11 -1.51169e-11 -1.51169e-11 -7.26636e-11 -7.26636e-11 1.76691e-12 1.76691e-12 -5.5627e-12 -5.5627e-12 1.76691e-12 1.76691e-12 -5.5627e-12 -5.5627e-12 -5.5627e-12 -5.5627e-12 1.34007e-11 1.34007e-11 -5.5627e-12 -5.5627e-12 1.34007e-11 1.34007e-11 1.76691e-12 1.76691e-12 -5.5627e-12 -5.5627e-12 1.76691e-12 1.76691e-12 -5.5627e-12 -5.5627e-12 -5.5627e-12 -5.5627e-12 1.34007e-11 1.34007e-11 -5.5627e-12 -5.5627e-12 1.34007e-11 1.34007e-11 1.34007e-11 1.34007e-11 -1.51169e-11 -1.51169e-11 1.34007e-11 1.34007e-11 -1.51169e-11 -1.51169e-11 -1.51169e-11 -1.51169e-11 -7.26636e-11 -7.26636e-11 -1.51169e-11 -1.51169e-11 -7.26636e-11 -7.26636e-11 1.34007e-11 1.34007e-11 -1.51169e-11 -1.51169e-11 1.34007e-11 1.34007e-11 -1.51169e-11 -1.51169e-11 -1.51169e-11 -1.51169e-11 -7.26636e-11 -7.26636e-11 -1.51169e-11 -1.51169e-11 -7.26636e-11 -7.26636e-11 -7.26636e-11 -7.26636e-11 6.32883e-10 6.32883e-10 -7.26636e-11 -7.26636e-11 6.32883e-10 6.32883e-10 6.32883e-10 6.32883e-10 -2.91115e-09 -2.91115e-09 6.32883e-10 6.32883e-10 -2.91115e-09 -2.91115e-09 -7.26636e-11 -7.26636e-11 6.32883e-10 6.32883e-10 -7.26636e-11 -7.26636e-11 6.32883e-10 6.32883e-10 6.32883e-10 6.32883e-10 -2.91115e-09 -2.91115e-09 6.32883e-10 6.32883e-10 -2.91115e-09 -2.91115e-09 -2.91115e-09 -2.91115e-09 9.35896e-09 9.35896e-09 -2.91115e-09 -2.91115e-09 9.35896e-09 9.35896e-09 9.35896e-09 9.35896e-09 -1.81006e-08 -1.81006e-08 9.35896e-09 9.35896e-09 -1.81006e-08 -1.81006e-08 -2.91115e-09 -2.91115e-09 9.35896e-09 9.35896e-09 -2.91115e-09 -2.91115e-09 9.35896e-09 9.35896e-09 9.35896e-09 9.35896e-09 -1.81006e-08 -1.81006e-08 9.35896e-09 9.35896e-09 -1.81006e-08 -1.81006e-08 -7.26636e-11 -7.26636e-11 6.32883e-10 6.32883e-10 -7.26636e-11 -7.26636e-11 6.32883e-10 6.32883e-10 6.32883e-10 6.32883e-10 -2.91115e-09 -2.91115e-09 6.32883e-10 6.32883e-10 -2.91115e-09 -2.91115e-09 -7.26636e-11 -7.26636e-11 6.32883e-10 6.32883e-10 -7.26636e-11 -7.26636e-11 6.32883e-10 6.32883e-10 6.32883e-10 6.32883e-10 -2.91115e-09 -2.91115e-09 6.32883e-10 6.32883e-10 -2.91115e-09 -2.91115e-09 -2.91115e-09 -2.91115e-09 9.35896e-09 9.35896e-09 -2.91115e-09 -2.91115e-09 9.35896e-09 9.35896e-09 9.35896e-09 9.35896e-09 -1.81006e-08 -1.81006e-08 9.35896e-09 9.35896e-09 -1.81006e-08 -1.81006e-08 -2.91115e-09 -2.91115e-09 9.35896e-09 9.35896e-09 -2.91115e-09 -2.91115e-09 9.35896e-09 9.35896e-09 9.35896e-09 9.35896e-09 -1.81006e-08 -1.81006e-08 9.35896e-09 9.35896e-09 -1.81006e-08 -1.81006e-08 1.76691e-12 1.76691e-12 -5.5627e-12 -5.5627e-12 1.76691e-12 1.76691e-12 -5.5627e-12 -5.56271e-12 -5.5627e-12 -5.5627e-12 1.34007e-11 1.34007e-11 -5.5627e-12 -5.56271e-12 1.34007e-11 1.34007e-11 1.76691e-12 1.76691e-12 -5.56271e-12 -5.56265e-12 1.76691e-12 1.76691e-12 -5.56265e-12 -5.56278e-12 -5.56271e-12 -5.56265e-12 1.34007e-11 1.34007e-11 -5.56265e-12 -5.56278e-12 1.34007e-11 1.34005e-11 1.34007e-11 1.34007e-11 -1.51169e-11 -1.51169e-11 1.34007e-11 1.34007e-11 -1.51169e-11 -1.51169e-11 -1.51169e-11 -1.51169e-11 -7.26636e-11 -7.26636e-11 -1.51169e-11 -1.51169e-11 -7.26636e-11 -7.26636e-11 1.34007e-11 1.34007e-11 -1.51169e-11 -1.51169e-11 1.34007e-11 1.34005e-11 -1.51169e-11 -1.51168e-11 -1.51169e-11 -1.51169e-11 -7.26636e-11 -7.26636e-11 -1.51169e-11 -1.51168e-11 -7.26636e-11 -7.26636e-11 1.76691e-12 1.7669e-12 -5.56278e-12 -5.56293e-12 1.7669e-12 1.76693e-12 -5.56293e-12 -5.56048e-12 -5.56278e-12 -5.56293e-12 1.34005e-11 1.34012e-11 -5.56293e-12 -5.56048e-12 1.34012e-11 1.33997e-11 1.76693e-12 1.76694e-12 -5.56048e-12 -5.56785e-12 1.76694e-12 1.76662e-12 -5.56785e-12 -5.58294e-12 -5.56048e-12 -5.56785e-12 1.33997e-11 1.34015e-11 -5.56785e-12 -5.58294e-12 1.34015e-11 1.34028e-11 1.34005e-11 1.34012e-11 -1.51168e-11 -1.51172e-11 1.34012e-11 1.33997e-11 -1.51172e-11 -1.51159e-11 -1.51168e-11 -1.51172e-11 -7.26636e-11 -7.26636e-11 -1.51172e-11 -1.51159e-11 -7.26636e-11 -7.26641e-11 1.33997e-11 1.34015e-11 -1.51159e-11 -1.51179e-11 1.34015e-11 1.34028e-11 -1.51179e-11 -1.51162e-11 -1.51159e-11 -1.51179e-11 -7.26641e-11 -7.26626e-11 -1.51179e-11 -1.51162e-11 -7.26626e-11 -7.26639e-11 -7.26636e-11 -7.26636e-11 6.32883e-10 6.32883e-10 -7.26636e-11 -7.26636e-11 6.32883e-10 6.32883e-10 6.32883e-10 6.32883e-10 -2.91115e-09 -2.91115e-09 6.32883e-10 6.32883e-10 -2.91115e-09 -2.91115e-09 -7.26636e-11 -7.26636e-11 6.32883e-10 6.32883e-10 -7.26636e-11 -7.26636e-11 6.32883e-10 6.32883e-10 6.32883e-10 6.32883e-10 -2.91115e-09 -2.91115e-09 6.32883e-10 6.32883e-10 -2.91115e-09 -2.91115e-09 -2.91115e-09 -2.91115e-09 9.35896e-09 9.35896e-09 -2.91115e-09 -2.91115e-09 9.35896e-09 9.35896e-09 9.35896e-09 9.35896e-09 -1.81006e-08 -1.81006e-08 9.35896e-09 9.35896e-09 -1.81006e-08 -1.81006e-08 -2.91115e-09 -2.91115e-09 9.35896e-09 9.35896e-09 -2.91115e-09 -2.91115e-09 9.35896e-09 9.35896e-09 9.35896e-09 9.35896e-09 -1.81006e-08 -1.81006e-08 9.35896e-09 9.35896e-09 -1.81006e-08 -1.81006e-08 -7.26636e-11 -7.26636e-11 6.32883e-10 6.32883e-10 -7.26636e-11 -7.26641e-11 6.32883e-10 6.32883e-10 6.32883e-10 6.32883e-10 -2.91115e-09 -2.91115e-09 6.32883e-10 6.32883e-10 -2.91115e-09 -2.91115e-09 -7.26641e-11 -7.26626e-11 6.32883e-10 6.32883e-10 -7.26626e-11 -7.26639e-11 6.32883e-10 6.32883e-10 6.32883e-10 6.32883e-10 -2.91115e-09 -2.91115e-09 6.32883e-10 6.32883e-10 -2.91115e-09 -2.91115e-09 -2.91115e-09 -2.91115e-09 9.35896e-09 9.35896e-09 -2.91115e-09 -2.91115e-09 9.35896e-09 9.35896e-09 9.35896e-09 9.35896e-09 -1.81006e-08 -1.81006e-08 9.35896e-09 9.35896e-09 -1.81006e-08 -1.81006e-08 -2.91115e-09 -2.91115e-09 9.35896e-09 9.35896e-09 -2.91115e-09 -2.91115e-09 9.35896e-09 9.35896e-09 9.35896e-09 9.35896e-09 -1.81006e-08 -1.81006e-08 9.35896e-09 9.35896e-09 -1.81006e-08 -1.81006e-08 -1.81006e-08 -1.81006e-08 -1.24377e-08 -1.24377e-08 -1.81006e-08 -1.81006e-08 -1.24377e-08 -1.24377e-08 -1.24377e-08 -1.24377e-08 2.74142e-07 2.74143e-07 -1.24377e-08 -1.24377e-08 2.74143e-07 2.74143e-07 -1.81006e-08 -1.81006e-08 -1.24377e-08 -1.24376e-08 -1.81006e-08 -1.81006e-08 -1.24376e-08 -1.24375e-08 -1.24377e-08 -1.24376e-08 2.74143e-07 2.74143e-07 -1.24376e-08 -1.24375e-08 2.74143e-07 2.74143e-07 2.74142e-07 2.74143e-07 -1.14665e-06 -1.14665e-06 2.74143e-07 2.74143e-07 -1.14665e-06 -1.14665e-06 -1.14665e-06 -1.14665e-06 1.63397e-06 1.63396e-06 -1.14665e-06 -1.14665e-06 1.63396e-06 1.63396e-06 2.74143e-07 2.74143e-07 -1.14665e-06 -1.14665e-06 2.74143e-07 2.74143e-07 -1.14665e-06 -1.14665e-06 -1.14665e-06 -1.14665e-06 1.63396e-06 1.63396e-06 -1.14665e-06 -1.14665e-06 1.63396e-06 1.63397e-06 -1.81006e-08 -1.81006e-08 -1.24375e-08 -1.24376e-08 -1.81006e-08 -1.81006e-08 -1.24376e-08 -1.24376e-08 -1.24375e-08 -1.24376e-08 2.74143e-07 2.74143e-07 -1.24376e-08 -1.24376e-08 2.74143e-07 2.74143e-07 -1.81006e-08 -1.81006e-08 -1.24376e-08 -1.24376e-08 -1.81006e-08 -1.81006e-08 -1.24376e-08 -1.24376e-08 -1.24376e-08 -1.24376e-08 2.74143e-07 2.74143e-07 -1.24376e-08 -1.24376e-08 2.74143e-07 2.74143e-07 2.74143e-07 2.74143e-07 -1.14665e-06 -1.14665e-06 2.74143e-07 2.74143e-07 -1.14665e-06 -1.14665e-06 -1.14665e-06 -1.14665e-06 1.63397e-06 1.63397e-06 -1.14665e-06 -1.14665e-06 1.63397e-06 1.63397e-06 2.74143e-07 2.74143e-07 -1.14665e-06 -1.14665e-06 2.74143e-07 2.74143e-07 -1.14665e-06 -1.14665e-06 -1.14665e-06 -1.14665e-06 1.63397e-06 1.63397e-06 -1.14665e-06 -1.14665e-06 1.63397e-06 1.63397e-06 1.63397e-06 1.63396e-06 7.66285e-06 7.66294e-06 1.63396e-06 1.63396e-06 7.66294e-06 7.66307e-06 7.66285e-06 7.66294e-06 -3.44132e-05 -3.44127e-05 7.66294e-06 7.66307e-06 -3.44127e-05 -3.44121e-05 1.63396e-06 1.63396e-06 7.66307e-06 7.66313e-06 1.63396e-06 1.63397e-06 7.66313e-06 7.66314e-06 7.66307e-06 7.66313e-06 -3.44121e-05 -3.44119e-05 7.66313e-06 7.66314e-06 -3.44119e-05 -3.44119e-05 -3.44132e-05 -3.44127e-05 -0.000131479 -0.000131477 -3.44127e-05 -3.44121e-05 -0.000131477 -0.000131476 -0.000131479 -0.000131477 -0.00024 -0.00024 -0.000131477 -0.000131476 -0.00024 -0.00024 -3.44121e-05 -3.44119e-05 -0.000131476 -0.000131476 -3.44119e-05 -3.44119e-05 -0.000131476 -0.000131475 -0.000131476 -0.000131476 -0.00024 -0.00024 -0.000131476 -0.000131475 -0.00024 -0.00024 1.63397e-06 1.63397e-06 7.66314e-06 7.66314e-06 1.63397e-06 1.63397e-06 7.66314e-06 7.66314e-06 7.66314e-06 7.66314e-06 -3.44119e-05 -3.44119e-05 7.66314e-06 7.66314e-06 -3.44119e-05 -3.44119e-05 1.63397e-06 1.63397e-06 7.66314e-06 7.66314e-06 1.63397e-06 1.63397e-06 7.66314e-06 7.66314e-06 7.66314e-06 7.66314e-06 -3.44119e-05 -3.44119e-05 7.66314e-06 7.66314e-06 -3.44119e-05 -3.44119e-05 -3.44119e-05 -3.44119e-05 -0.000131475 -0.000131476 -3.44119e-05 -3.44119e-05 -0.000131476 -0.000131476 -0.000131475 -0.000131476 -0.00024 -0.00024 -0.000131476 -0.000131476 -0.00024 -0.00024 -3.44119e-05 -3.44119e-05 -0.000131476 -0.000131476 -3.44119e-05 -3.44119e-05 -0.000131476 -0.000131476 -0.000131476 -0.000131476 -0.00024 -0.00024 -0.000131476 -0.000131476 -0.00024 -0.00024 -1.81006e-08 -1.81006e-08 -1.24376e-08 -1.24376e-08 -1.81006e-08 -1.81006e-08 -1.24376e-08 -1.24376e-08 -1.24376e-08 -1.24376e-08 2.74143e-07 2.74143e-07 -1.24376e-08 -1.24376e-08 2.74143e-07 2.74143e-07 -1.81006e-08 -1.81006e-08 -1.24376e-08 -1.24376e-08 -1.81006e-08 -1.81006e-08 -1.24376e-08 -1.24376e-08 -1.24376e-08 -1.24376e-08 2.74143e-07 2.74143e-07 -1.24376e-08 -1.24376e-08 2.74143e-07 2.74143e-07 2.74143e-07 2.74143e-07 -1.14665e-06 -1.14665e-06 2.74143e-07 2.74143e-07 -1.14665e-06 -1.14665e-06 -1.14665e-06 -1.14665e-06 1.63397e-06 1.63397e-06 -1.14665e-06 -1.14665e-06 1.63397e-06 1.63397e-06 2.74143e-07 2.74143e-07 -1.14665e-06 -1.14665e-06 2.74143e-07 2.74143e-07 -1.14665e-06 -1.14665e-06 -1.14665e-06 -1.14665e-06 1.63397e-06 1.63397e-06 -1.14665e-06 -1.14665e-06 1.63397e-06 1.63397e-06 -1.81006e-08 -1.81006e-08 -1.24376e-08 -1.24376e-08 -1.81006e-08 -1.81006e-08 -1.24376e-08 -1.24376e-08 -1.24376e-08 -1.24376e-08 2.74143e-07 2.74143e-07 -1.24376e-08 -1.24376e-08 2.74143e-07 2.74143e-07 -1.81006e-08 -1.81006e-08 -1.24376e-08 -1.24376e-08 -1.81006e-08 -1.81006e-08 -1.24376e-08 -1.24376e-08 -1.24376e-08 -1.24376e-08 2.74143e-07 2.74143e-07 -1.24376e-08 -1.24376e-08 2.74143e-07 2.74143e-07 2.74143e-07 2.74143e-07 -1.14665e-06 -1.14665e-06 2.74143e-07 2.74143e-07 -1.14665e-06 -1.14665e-06 -1.14665e-06 -1.14665e-06 1.63397e-06 1.63397e-06 -1.14665e-06 -1.14665e-06 1.63397e-06 1.63397e-06 2.74143e-07 2.74143e-07 -1.14665e-06 -1.14665e-06 2.74143e-07 2.74143e-07 -1.14665e-06 -1.14665e-06 -1.14665e-06 -1.14665e-06 1.63397e-06 1.63397e-06 -1.14665e-06 -1.14665e-06 1.63397e-06 1.63397e-06 1.63397e-06 1.63397e-06 7.66314e-06 7.66314e-06 1.63397e-06 1.63397e-06 7.66314e-06 7.66314e-06 7.66314e-06 7.66314e-06 -3.44119e-05 -3.44119e-05 7.66314e-06 7.66314e-06 -3.44119e-05 -3.44119e-05 1.63397e-06 1.63397e-06 7.66314e-06 7.66314e-06 1.63397e-06 1.63397e-06 7.66314e-06 7.66314e-06 7.66314e-06 7.66314e-06 -3.44119e-05 -3.44119e-05 7.66314e-06 7.66314e-06 -3.44119e-05 -3.44119e-05 -3.44119e-05 -3.44119e-05 -0.000131476 -0.000131476 -3.44119e-05 -3.44119e-05 -0.000131476 -0.000131476 -0.000131476 -0.000131476 -0.00024 -0.00024 -0.000131476 -0.000131476 -0.00024 -0.00024 -3.44119e-05 -3.44119e-05 -0.000131476 -0.000131476 -3.44119e-05 -3.44119e-05 -0.000131476 -0.000131476 -0.000131476 -0.000131476 -0.00024 -0.00024 -0.000131476 -0.000131476 -0.00024 -0.00024 1.63397e-06 1.63397e-06 7.66314e-06 7.66314e-06 1.63397e-06 1.63397e-06 7.66314e-06 7.66314e-06 7.66314e-06 7.66314e-06 -3.44119e-05 -3.44119e-05 7.66314e-06 7.66314e-06 -3.44119e-05 -3.44119e-05 1.63397e-06 1.63397e-06 7.66314e-06 7.66314e-06 1.63397e-06 1.63397e-06 7.66314e-06 7.66314e-06 7.66314e-06 7.66314e-06 -3.44119e-05 -3.44119e-05 7.66314e-06 7.66314e-06 -3.44119e-05 -3.44119e-05 -3.44119e-05 -3.44119e-05 -0.000131476 -0.000131476 -3.44119e-05 -3.44119e-05 -0.000131476 -0.000131476 -0.000131476 -0.000131476 -0.00024 -0.00024 -0.000131476 -0.000131476 -0.00024 -0.00024 -3.44119e-05 -3.44119e-05 -0.000131476 -0.000131476 -3.44119e-05 -3.44119e-05 -0.000131476 -0.000131476 -0.000131476 -0.000131476 -0.00024 -0.00024 -0.000131476 -0.000131476 -0.00024 -0.00024 1.76662e-12 3.73879e-12 -5.58294e-12 -6.0204e-12 3.73879e-12 3.60999e-12 -6.0204e-12 -6.04476e-12 -5.58294e-12 -6.0204e-12 1.34028e-11 1.34905e-11 -6.0204e-12 -6.04476e-12 1.34905e-11 1.35065e-11 3.60999e-12 3.49487e-12 -6.04476e-12 -6.02681e-12 3.49487e-12 3.54109e-12 -6.02681e-12 -6.02751e-12 -6.04476e-12 -6.02681e-12 1.35065e-11 1.35027e-11 -6.02681e-12 -6.02751e-12 1.35027e-11 1.35001e-11 1.34028e-11 1.34905e-11 -1.51162e-11 -1.51271e-11 1.34905e-11 1.35065e-11 -1.51271e-11 -1.51333e-11 -1.51162e-11 -1.51271e-11 -7.26639e-11 -7.26656e-11 -1.51271e-11 -1.51333e-11 -7.26656e-11 -7.26638e-11 1.35065e-11 1.35027e-11 -1.51333e-11 -1.51341e-11 1.35027e-11 1.35001e-11 -1.51341e-11 -1.51318e-11 -1.51333e-11 -1.51341e-11 -7.26638e-11 -7.26625e-11 -1.51341e-11 -1.51318e-11 -7.26625e-11 -7.26635e-11 3.54109e-12 3.53416e-12 -6.02751e-12 -6.0282e-12 3.53416e-12 3.53316e-12 -6.0282e-12 -6.02817e-12 -6.02751e-12 -6.0282e-12 1.35001e-11 1.35019e-11 -6.0282e-12 -6.02817e-12 1.35019e-11 1.35014e-11 3.53316e-12 3.53405e-12 -6.02817e-12 -6.02807e-12 3.53405e-12 3.53378e-12 -6.02807e-12 -6.02811e-12 -6.02817e-12 -6.02807e-12 1.35014e-11 1.35014e-11 -6.02807e-12 -6.02811e-12 1.35014e-11 1.35015e-11 1.35001e-11 1.35019e-11 -1.51318e-11 -1.51327e-11 1.35019e-11 1.35014e-11 -1.51327e-11 -1.51326e-11 -1.51318e-11 -1.51327e-11 -7.26635e-11 -7.26633e-11 -1.51327e-11 -1.51326e-11 -7.26633e-11 -7.26633e-11 1.35014e-11 1.35014e-11 -1.51326e-11 -1.51326e-11 1.35014e-11 1.35015e-11 -1.51326e-11 -1.51326e-11 -1.51326e-11 -1.51326e-11 -7.26633e-11 -7.26633e-11 -1.51326e-11 -1.51326e-11 -7.26633e-11 -7.26633e-11 -7.26639e-11 -7.26656e-11 6.32883e-10 6.32885e-10 -7.26656e-11 -7.26638e-11 6.32885e-10 6.32885e-10 6.32883e-10 6.32885e-10 -2.91115e-09 -2.91115e-09 6.32885e-10 6.32885e-10 -2.91115e-09 -2.91115e-09 -7.26638e-11 -7.26625e-11 6.32885e-10 6.32884e-10 -7.26625e-11 -7.26635e-11 6.32884e-10 6.32884e-10 6.32885e-10 6.32884e-10 -2.91115e-09 -2.91115e-09 6.32884e-10 6.32884e-10 -2.91115e-09 -2.91115e-09 -2.91115e-09 -2.91115e-09 9.35896e-09 9.35896e-09 -2.91115e-09 -2.91115e-09 9.35896e-09 9.35896e-09 9.35896e-09 9.35896e-09 -1.81006e-08 -1.81006e-08 9.35896e-09 9.35896e-09 -1.81006e-08 -1.81006e-08 -2.91115e-09 -2.91115e-09 9.35896e-09 9.35896e-09 -2.91115e-09 -2.91115e-09 9.35896e-09 9.35896e-09 9.35896e-09 9.35896e-09 -1.81006e-08 -1.81006e-08 9.35896e-09 9.35896e-09 -1.81006e-08 -1.81006e-08 -7.26635e-11 -7.26633e-11 6.32884e-10 6.32884e-10 -7.26633e-11 -7.26633e-11 6.32884e-10 6.32884e-10 6.32884e-10 6.32884e-10 -2.91115e-09 -2.91115e-09 6.32884e-10 6.32884e-10 -2.91115e-09 -2.91115e-09 -7.26633e-11 -7.26633e-11 6.32884e-10 6.32884e-10 -7.26633e-11 -7.26633e-11 6.32884e-10 6.32884e-10 6.32884e-10 6.32884e-10 -2.91115e-09 -2.91115e-09 6.32884e-10 6.32884e-10 -2.91115e-09 -2.91115e-09 -2.91115e-09 -2.91115e-09 9.35896e-09 9.35896e-09 -2.91115e-09 -2.91115e-09 9.35896e-09 9.35896e-09 9.35896e-09 9.35896e-09 -1.81006e-08 -1.81006e-08 9.35896e-09 9.35896e-09 -1.81006e-08 -1.81006e-08 -2.91115e-09 -2.91115e-09 9.35896e-09 9.35896e-09 -2.91115e-09 -2.91115e-09 9.35896e-09 9.35896e-09 9.35896e-09 9.35896e-09 -1.81006e-08 -1.81006e-08 9.35896e-09 9.35896e-09 -1.81006e-08 -1.81006e-08 3.53378e-12 3.53382e-12 -6.02811e-12 -6.02811e-12 3.53382e-12 3.53383e-12 -6.02811e-12 -6.0281e-12 -6.02811e-12 -6.02811e-12 1.35015e-11 1.35014e-11 -6.02811e-12 -6.0281e-12 1.35014e-11 1.35015e-11 3.53383e-12 3.53382e-12 -6.0281e-12 -6.02811e-12 3.53382e-12 3.53382e-12 -6.02811e-12 -6.02811e-12 -6.0281e-12 -6.02811e-12 1.35015e-11 1.35015e-11 -6.02811e-12 -6.02811e-12 1.35015e-11 1.35015e-11 1.35015e-11 1.35014e-11 -1.51326e-11 -1.51326e-11 1.35014e-11 1.35015e-11 -1.51326e-11 -1.51326e-11 -1.51326e-11 -1.51326e-11 -7.26633e-11 -7.26633e-11 -1.51326e-11 -1.51326e-11 -7.26633e-11 -7.26633e-11 1.35015e-11 1.35015e-11 -1.51326e-11 -1.51326e-11 1.35015e-11 1.35015e-11 -1.51326e-11 -1.51326e-11 -1.51326e-11 -1.51326e-11 -7.26633e-11 -7.26633e-11 -1.51326e-11 -1.51326e-11 -7.26633e-11 -7.26633e-11 3.53382e-12 3.53382e-12 -6.02811e-12 -6.02811e-12 3.53382e-12 3.53382e-12 -6.02811e-12 -6.0281e-12 -6.02811e-12 -6.02811e-12 1.35015e-11 1.35015e-11 -6.02811e-12 -6.0281e-12 1.35015e-11 1.35014e-11 3.53382e-12 3.53382e-12 -6.0281e-12 -6.0281e-12 3.53382e-12 3.53382e-12 -6.0281e-12 -6.02811e-12 -6.0281e-12 -6.0281e-12 1.35014e-11 1.35014e-11 -6.0281e-12 -6.02811e-12 1.35014e-11 1.35014e-11 1.35015e-11 1.35015e-11 -1.51326e-11 -1.51326e-11 1.35015e-11 1.35014e-11 -1.51326e-11 -1.51326e-11 -1.51326e-11 -1.51326e-11 -7.26633e-11 -7.26633e-11 -1.51326e-11 -1.51326e-11 -7.26633e-11 -7.26633e-11 1.35014e-11 1.35014e-11 -1.51326e-11 -1.51326e-11 1.35014e-11 1.35014e-11 -1.51326e-11 -1.51326e-11 -1.51326e-11 -1.51326e-11 -7.26633e-11 -7.26633e-11 -1.51326e-11 -1.51326e-11 -7.26633e-11 -7.26633e-11 -7.26633e-11 -7.26633e-11 6.32884e-10 6.32884e-10 -7.26633e-11 -7.26633e-11 6.32884e-10 6.32884e-10 6.32884e-10 6.32884e-10 -2.91115e-09 -2.91115e-09 6.32884e-10 6.32884e-10 -2.91115e-09 -2.91115e-09 -7.26633e-11 -7.26633e-11 6.32884e-10 6.32884e-10 -7.26633e-11 -7.26633e-11 6.32884e-10 6.32884e-10 6.32884e-10 6.32884e-10 -2.91115e-09 -2.91115e-09 6.32884e-10 6.32884e-10 -2.91115e-09 -2.91115e-09 -2.91115e-09 -2.91115e-09 9.35896e-09 9.35896e-09 -2.91115e-09 -2.91115e-09 9.35896e-09 9.35896e-09 9.35896e-09 9.35896e-09 -1.81006e-08 -1.81006e-08 9.35896e-09 9.35896e-09 -1.81006e-08 -1.81006e-08 -2.91115e-09 -2.91115e-09 9.35896e-09 9.35896e-09 -2.91115e-09 -2.91115e-09 9.35896e-09 9.35896e-09 9.35896e-09 9.35896e-09 -1.81006e-08 -1.81006e-08 9.35896e-09 9.35896e-09 -1.81006e-08 -1.81006e-08 -7.26633e-11 -7.26633e-11 6.32884e-10 6.32884e-10 -7.26633e-11 -7.26633e-11 6.32884e-10 6.32884e-10 6.32884e-10 6.32884e-10 -2.91115e-09 -2.91115e-09 6.32884e-10 6.32884e-10 -2.91115e-09 -2.91115e-09 -7.26633e-11 -7.26633e-11 6.32884e-10 6.32884e-10 -7.26633e-11 -7.26633e-11 6.32884e-10 6.32884e-10 6.32884e-10 6.32884e-10 -2.91115e-09 -2.91115e-09 6.32884e-10 6.32884e-10 -2.91115e-09 -2.91115e-09 -2.91115e-09 -2.91115e-09 9.35896e-09 9.35896e-09 -2.91115e-09 -2.91115e-09 9.35896e-09 9.35895e-09 9.35896e-09 9.35896e-09 -1.81006e-08 -1.81006e-08 9.35896e-09 9.35895e-09 -1.81006e-08 -1.81006e-08 -2.91115e-09 -2.91115e-09 9.35895e-09 9.35896e-09 -2.91115e-09 -2.91115e-09 9.35896e-09 9.35896e-09 9.35895e-09 9.35896e-09 -1.81006e-08 -1.81006e-08 9.35896e-09 9.35896e-09 -1.81006e-08 -1.81006e-08 -1.81006e-08 -1.81006e-08 -1.24376e-08 -1.24376e-08 -1.81006e-08 -1.81006e-08 -1.24376e-08 -1.24376e-08 -1.24376e-08 -1.24376e-08 2.74143e-07 2.74143e-07 -1.24376e-08 -1.24376e-08 2.74143e-07 2.74143e-07 -1.81006e-08 -1.81006e-08 -1.24376e-08 -1.24376e-08 -1.81006e-08 -1.81006e-08 -1.24376e-08 -1.24376e-08 -1.24376e-08 -1.24376e-08 2.74143e-07 2.74143e-07 -1.24376e-08 -1.24376e-08 2.74143e-07 2.74143e-07 2.74143e-07 2.74143e-07 -1.14665e-06 -1.14665e-06 2.74143e-07 2.74143e-07 -1.14665e-06 -1.14665e-06 -1.14665e-06 -1.14665e-06 1.63397e-06 1.63397e-06 -1.14665e-06 -1.14665e-06 1.63397e-06 1.63397e-06 2.74143e-07 2.74143e-07 -1.14665e-06 -1.14665e-06 2.74143e-07 2.74143e-07 -1.14665e-06 -1.14665e-06 -1.14665e-06 -1.14665e-06 1.63397e-06 1.63397e-06 -1.14665e-06 -1.14665e-06 1.63397e-06 1.63