# vtk DataFile Version 3.0
#This file was generated by the deal.II library on 2022/11/16 at 21:29:49
ASCII
DATASET UNSTRUCTURED_GRID

POINTS 4096 double
0 0.5 0
0.03125 0.5 0
0 0.53125 0
0.03125 0.53125 0
0.03125 0.5 0
0.0625 0.5 0
0.03125 0.53125 0
0.0625 0.53125 0
0 0.53125 0
0.03125 0.53125 0
0 0.5625 0
0.03125 0.5625 0
0.03125 0.53125 0
0.0625 0.53125 0
0.03125 0.5625 0
0.0625 0.5625 0
0.0625 0.5 0
0.09375 0.5 0
0.0625 0.53125 0
0.09375 0.53125 0
0.09375 0.5 0
0.125 0.5 0
0.09375 0.53125 0
0.125 0.53125 0
0.0625 0.53125 0
0.09375 0.53125 0
0.0625 0.5625 0
0.09375 0.5625 0
0.09375 0.53125 0
0.125 0.53125 0
0.09375 0.5625 0
0.125 0.5625 0
0 0.5625 0
0.03125 0.5625 0
0 0.59375 0
0.03125 0.59375 0
0.03125 0.5625 0
0.0625 0.5625 0
0.03125 0.59375 0
0.0625 0.59375 0
0 0.59375 0
0.03125 0.59375 0
0 0.625 0
0.03125 0.625 0
0.03125 0.59375 0
0.0625 0.59375 0
0.03125 0.625 0
0.0625 0.625 0
0.0625 0.5625 0
0.09375 0.5625 0
0.0625 0.59375 0
0.09375 0.59375 0
0.09375 0.5625 0
0.125 0.5625 0
0.09375 0.59375 0
0.125 0.59375 0
0.0625 0.59375 0
0.09375 0.59375 0
0.0625 0.625 0
0.09375 0.625 0
0.09375 0.59375 0
0.125 0.59375 0
0.09375 0.625 0
0.125 0.625 0
0.125 0.5 0
0.15625 0.5 0
0.125 0.53125 0
0.15625 0.53125 0
0.15625 0.5 0
0.1875 0.5 0
0.15625 0.53125 0
0.1875 0.53125 0
0.125 0.53125 0
0.15625 0.53125 0
0.125 0.5625 0
0.15625 0.5625 0
0.15625 0.53125 0
0.1875 0.53125 0
0.15625 0.5625 0
0.1875 0.5625 0
0.1875 0.5 0
0.21875 0.5 0
0.1875 0.53125 0
0.21875 0.53125 0
0.21875 0.5 0
0.25 0.5 0
0.21875 0.53125 0
0.25 0.53125 0
0.1875 0.53125 0
0.21875 0.53125 0
0.1875 0.5625 0
0.21875 0.5625 0
0.21875 0.53125 0
0.25 0.53125 0
0.21875 0.5625 0
0.25 0.5625 0
0.125 0.5625 0
0.15625 0.5625 0
0.125 0.59375 0
0.15625 0.59375 0
0.15625 0.5625 0
0.1875 0.5625 0
0.15625 0.59375 0
0.1875 0.59375 0
0.125 0.59375 0
0.15625 0.59375 0
0.125 0.625 0
0.15625 0.625 0
0.15625 0.59375 0
0.1875 0.59375 0
0.15625 0.625 0
0.1875 0.625 0
0.1875 0.5625 0
0.21875 0.5625 0
0.1875 0.59375 0
0.21875 0.59375 0
0.21875 0.5625 0
0.25 0.5625 0
0.21875 0.59375 0
0.25 0.59375 0
0.1875 0.59375 0
0.21875 0.59375 0
0.1875 0.625 0
0.21875 0.625 0
0.21875 0.59375 0
0.25 0.59375 0
0.21875 0.625 0
0.25 0.625 0
0 0.625 0
0.03125 0.625 0
0 0.65625 0
0.03125 0.65625 0
0.03125 0.625 0
0.0625 0.625 0
0.03125 0.65625 0
0.0625 0.65625 0
0 0.65625 0
0.03125 0.65625 0
0 0.6875 0
0.03125 0.6875 0
0.03125 0.65625 0
0.0625 0.65625 0
0.03125 0.6875 0
0.0625 0.6875 0
0.0625 0.625 0
0.09375 0.625 0
0.0625 0.65625 0
0.09375 0.65625 0
0.09375 0.625 0
0.125 0.625 0
0.09375 0.65625 0
0.125 0.65625 0
0.0625 0.65625 0
0.09375 0.65625 0
0.0625 0.6875 0
0.09375 0.6875 0
0.09375 0.65625 0
0.125 0.65625 0
0.09375 0.6875 0
0.125 0.6875 0
0 0.6875 0
0.03125 0.6875 0
0 0.71875 0
0.03125 0.71875 0
0.03125 0.6875 0
0.0625 0.6875 0
0.03125 0.71875 0
0.0625 0.71875 0
0 0.71875 0
0.03125 0.71875 0
0 0.75 0
0.03125 0.75 0
0.03125 0.71875 0
0.0625 0.71875 0
0.03125 0.75 0
0.0625 0.75 0
0.0625 0.6875 0
0.09375 0.6875 0
0.0625 0.71875 0
0.09375 0.71875 0
0.09375 0.6875 0
0.125 0.6875 0
0.09375 0.71875 0
0.125 0.71875 0
0.0625 0.71875 0
0.09375 0.71875 0
0.0625 0.75 0
0.09375 0.75 0
0.09375 0.71875 0
0.125 0.71875 0
0.09375 0.75 0
0.125 0.75 0
0.125 0.625 0
0.15625 0.625 0
0.125 0.65625 0
0.15625 0.65625 0
0.15625 0.625 0
0.1875 0.625 0
0.15625 0.65625 0
0.1875 0.65625 0
0.125 0.65625 0
0.15625 0.65625 0
0.125 0.6875 0
0.15625 0.6875 0
0.15625 0.65625 0
0.1875 0.65625 0
0.15625 0.6875 0
0.1875 0.6875 0
0.1875 0.625 0
0.21875 0.625 0
0.1875 0.65625 0
0.21875 0.65625 0
0.21875 0.625 0
0.25 0.625 0
0.21875 0.65625 0
0.25 0.65625 0
0.1875 0.65625 0
0.21875 0.65625 0
0.1875 0.6875 0
0.21875 0.6875 0
0.21875 0.65625 0
0.25 0.65625 0
0.21875 0.6875 0
0.25 0.6875 0
0.125 0.6875 0
0.15625 0.6875 0
0.125 0.71875 0
0.15625 0.71875 0
0.15625 0.6875 0
0.1875 0.6875 0
0.15625 0.71875 0
0.1875 0.71875 0
0.125 0.71875 0
0.15625 0.71875 0
0.125 0.75 0
0.15625 0.75 0
0.15625 0.71875 0
0.1875 0.71875 0
0.15625 0.75 0
0.1875 0.75 0
0.1875 0.6875 0
0.21875 0.6875 0
0.1875 0.71875 0
0.21875 0.71875 0
0.21875 0.6875 0
0.25 0.6875 0
0.21875 0.71875 0
0.25 0.71875 0
0.1875 0.71875 0
0.21875 0.71875 0
0.1875 0.75 0
0.21875 0.75 0
0.21875 0.71875 0
0.25 0.71875 0
0.21875 0.75 0
0.25 0.75 0
0.25 0.5 0
0.28125 0.5 0
0.25 0.53125 0
0.28125 0.53125 0
0.28125 0.5 0
0.3125 0.5 0
0.28125 0.53125 0
0.3125 0.53125 0
0.25 0.53125 0
0.28125 0.53125 0
0.25 0.5625 0
0.28125 0.5625 0
0.28125 0.53125 0
0.3125 0.53125 0
0.28125 0.5625 0
0.3125 0.5625 0
0.3125 0.5 0
0.34375 0.5 0
0.3125 0.53125 0
0.34375 0.53125 0
0.34375 0.5 0
0.375 0.5 0
0.34375 0.53125 0
0.375 0.53125 0
0.3125 0.53125 0
0.34375 0.53125 0
0.3125 0.5625 0
0.34375 0.5625 0
0.34375 0.53125 0
0.375 0.53125 0
0.34375 0.5625 0
0.375 0.5625 0
0.25 0.5625 0
0.28125 0.5625 0
0.25 0.59375 0
0.28125 0.59375 0
0.28125 0.5625 0
0.3125 0.5625 0
0.28125 0.59375 0
0.3125 0.59375 0
0.25 0.59375 0
0.28125 0.59375 0
0.25 0.625 0
0.28125 0.625 0
0.28125 0.59375 0
0.3125 0.59375 0
0.28125 0.625 0
0.3125 0.625 0
0.3125 0.5625 0
0.34375 0.5625 0
0.3125 0.59375 0
0.34375 0.59375 0
0.34375 0.5625 0
0.375 0.5625 0
0.34375 0.59375 0
0.375 0.59375 0
0.3125 0.59375 0
0.34375 0.59375 0
0.3125 0.625 0
0.34375 0.625 0
0.34375 0.59375 0
0.375 0.59375 0
0.34375 0.625 0
0.375 0.625 0
0.375 0.5 0
0.40625 0.5 0
0.375 0.53125 0
0.40625 0.53125 0
0.40625 0.5 0
0.4375 0.5 0
0.40625 0.53125 0
0.4375 0.53125 0
0.375 0.53125 0
0.40625 0.53125 0
0.375 0.5625 0
0.40625 0.5625 0
0.40625 0.53125 0
0.4375 0.53125 0
0.40625 0.5625 0
0.4375 0.5625 0
0.4375 0.5 0
0.46875 0.5 0
0.4375 0.53125 0
0.46875 0.53125 0
0.46875 0.5 0
0.5 0.5 0
0.46875 0.53125 0
0.5 0.53125 0
0.4375 0.53125 0
0.46875 0.53125 0
0.4375 0.5625 0
0.46875 0.5625 0
0.46875 0.53125 0
0.5 0.53125 0
0.46875 0.5625 0
0.5 0.5625 0
0.375 0.5625 0
0.40625 0.5625 0
0.375 0.59375 0
0.40625 0.59375 0
0.40625 0.5625 0
0.4375 0.5625 0
0.40625 0.59375 0
0.4375 0.59375 0
0.375 0.59375 0
0.40625 0.59375 0
0.375 0.625 0
0.40625 0.625 0
0.40625 0.59375 0
0.4375 0.59375 0
0.40625 0.625 0
0.4375 0.625 0
0.4375 0.5625 0
0.46875 0.5625 0
0.4375 0.59375 0
0.46875 0.59375 0
0.46875 0.5625 0
0.5 0.5625 0
0.46875 0.59375 0
0.5 0.59375 0
0.4375 0.59375 0
0.46875 0.59375 0
0.4375 0.625 0
0.46875 0.625 0
0.46875 0.59375 0
0.5 0.59375 0
0.46875 0.625 0
0.5 0.625 0
0.25 0.625 0
0.28125 0.625 0
0.25 0.65625 0
0.28125 0.65625 0
0.28125 0.625 0
0.3125 0.625 0
0.28125 0.65625 0
0.3125 0.65625 0
0.25 0.65625 0
0.28125 0.65625 0
0.25 0.6875 0
0.28125 0.6875 0
0.28125 0.65625 0
0.3125 0.65625 0
0.28125 0.6875 0
0.3125 0.6875 0
0.3125 0.625 0
0.34375 0.625 0
0.3125 0.65625 0
0.34375 0.65625 0
0.34375 0.625 0
0.375 0.625 0
0.34375 0.65625 0
0.375 0.65625 0
0.3125 0.65625 0
0.34375 0.65625 0
0.3125 0.6875 0
0.34375 0.6875 0
0.34375 0.65625 0
0.375 0.65625 0
0.34375 0.6875 0
0.375 0.6875 0
0.25 0.6875 0
0.28125 0.6875 0
0.25 0.71875 0
0.28125 0.71875 0
0.28125 0.6875 0
0.3125 0.6875 0
0.28125 0.71875 0
0.3125 0.71875 0
0.25 0.71875 0
0.28125 0.71875 0
0.25 0.75 0
0.28125 0.75 0
0.28125 0.71875 0
0.3125 0.71875 0
0.28125 0.75 0
0.3125 0.75 0
0.3125 0.6875 0
0.34375 0.6875 0
0.3125 0.71875 0
0.34375 0.71875 0
0.34375 0.6875 0
0.375 0.6875 0
0.34375 0.71875 0
0.375 0.71875 0
0.3125 0.71875 0
0.34375 0.71875 0
0.3125 0.75 0
0.34375 0.75 0
0.34375 0.71875 0
0.375 0.71875 0
0.34375 0.75 0
0.375 0.75 0
0.375 0.625 0
0.40625 0.625 0
0.375 0.65625 0
0.40625 0.65625 0
0.40625 0.625 0
0.4375 0.625 0
0.40625 0.65625 0
0.4375 0.65625 0
0.375 0.65625 0
0.40625 0.65625 0
0.375 0.6875 0
0.40625 0.6875 0
0.40625 0.65625 0
0.4375 0.65625 0
0.40625 0.6875 0
0.4375 0.6875 0
0.4375 0.625 0
0.46875 0.625 0
0.4375 0.65625 0
0.46875 0.65625 0
0.46875 0.625 0
0.5 0.625 0
0.46875 0.65625 0
0.5 0.65625 0
0.4375 0.65625 0
0.46875 0.65625 0
0.4375 0.6875 0
0.46875 0.6875 0
0.46875 0.65625 0
0.5 0.65625 0
0.46875 0.6875 0
0.5 0.6875 0
0.375 0.6875 0
0.40625 0.6875 0
0.375 0.71875 0
0.40625 0.71875 0
0.40625 0.6875 0
0.4375 0.6875 0
0.40625 0.71875 0
0.4375 0.71875 0
0.375 0.71875 0
0.40625 0.71875 0
0.375 0.75 0
0.40625 0.75 0
0.40625 0.71875 0
0.4375 0.71875 0
0.40625 0.75 0
0.4375 0.75 0
0.4375 0.6875 0
0.46875 0.6875 0
0.4375 0.71875 0
0.46875 0.71875 0
0.46875 0.6875 0
0.5 0.6875 0
0.46875 0.71875 0
0.5 0.71875 0
0.4375 0.71875 0
0.46875 0.71875 0
0.4375 0.75 0
0.46875 0.75 0
0.46875 0.71875 0
0.5 0.71875 0
0.46875 0.75 0
0.5 0.75 0
0 0.75 0
0.03125 0.75 0
0 0.78125 0
0.03125 0.78125 0
0.03125 0.75 0
0.0625 0.75 0
0.03125 0.78125 0
0.0625 0.78125 0
0 0.78125 0
0.03125 0.78125 0
0 0.8125 0
0.03125 0.8125 0
0.03125 0.78125 0
0.0625 0.78125 0
0.03125 0.8125 0
0.0625 0.8125 0
0.0625 0.75 0
0.09375 0.75 0
0.0625 0.78125 0
0.09375 0.78125 0
0.09375 0.75 0
0.125 0.75 0
0.09375 0.78125 0
0.125 0.78125 0
0.0625 0.78125 0
0.09375 0.78125 0
0.0625 0.8125 0
0.09375 0.8125 0
0.09375 0.78125 0
0.125 0.78125 0
0.09375 0.8125 0
0.125 0.8125 0
0 0.8125 0
0.03125 0.8125 0
0 0.84375 0
0.03125 0.84375 0
0.03125 0.8125 0
0.0625 0.8125 0
0.03125 0.84375 0
0.0625 0.84375 0
0 0.84375 0
0.03125 0.84375 0
0 0.875 0
0.03125 0.875 0
0.03125 0.84375 0
0.0625 0.84375 0
0.03125 0.875 0
0.0625 0.875 0
0.0625 0.8125 0
0.09375 0.8125 0
0.0625 0.84375 0
0.09375 0.84375 0
0.09375 0.8125 0
0.125 0.8125 0
0.09375 0.84375 0
0.125 0.84375 0
0.0625 0.84375 0
0.09375 0.84375 0
0.0625 0.875 0
0.09375 0.875 0
0.09375 0.84375 0
0.125 0.84375 0
0.09375 0.875 0
0.125 0.875 0
0.125 0.75 0
0.15625 0.75 0
0.125 0.78125 0
0.15625 0.78125 0
0.15625 0.75 0
0.1875 0.75 0
0.15625 0.78125 0
0.1875 0.78125 0
0.125 0.78125 0
0.15625 0.78125 0
0.125 0.8125 0
0.15625 0.8125 0
0.15625 0.78125 0
0.1875 0.78125 0
0.15625 0.8125 0
0.1875 0.8125 0
0.1875 0.75 0
0.21875 0.75 0
0.1875 0.78125 0
0.21875 0.78125 0
0.21875 0.75 0
0.25 0.75 0
0.21875 0.78125 0
0.25 0.78125 0
0.1875 0.78125 0
0.21875 0.78125 0
0.1875 0.8125 0
0.21875 0.8125 0
0.21875 0.78125 0
0.25 0.78125 0
0.21875 0.8125 0
0.25 0.8125 0
0.125 0.8125 0
0.15625 0.8125 0
0.125 0.84375 0
0.15625 0.84375 0
0.15625 0.8125 0
[...]
POINT_DATA 4096
SCALARS x_dis double 1
LOOKUP_TABLE default
-3.50867e-05 -3.50861e-05 -0.000102243 -0.000102242 -3.50861e-05 -3.50847e-05 -0.000102242 -0.00010224 -0.000102243 -0.000102242 -0.000191876 -0.000191874 -0.000102242 -0.00010224 -0.000191874 -0.000191871 -3.50847e-05 -3.50828e-05 -0.00010224 -0.000102237 -3.50828e-05 -3.50803e-05 -0.000102237 -0.000102234 -0.00010224 -0.000102237 -0.000191871 -0.000191867 -0.000102237 -0.000102234 -0.000191867 -0.000191863 -0.000191876 -0.000191874 -0.000293904 -0.0002939 -0.000191874 -0.000191871 -0.0002939 -0.000293896 -0.000293904 -0.0002939 -0.000401297 -0.000401291 -0.0002939 -0.000293896 -0.000401291 -0.000401286 -0.000191871 -0.000191867 -0.000293896 -0.000293891 -0.000191867 -0.000191863 -0.000293891 -0.000293886 -0.000293896 -0.000293891 -0.000401286 -0.00040128 -0.000293891 -0.000293886 -0.00040128 -0.000401274 -3.50803e-05 -3.50773e-05 -0.000102234 -0.000102229 -3.50773e-05 -3.5074e-05 -0.000102229 -0.000102225 -0.000102234 -0.000102229 -0.000191863 -0.000191857 -0.000102229 -0.000102225 -0.000191857 -0.000191851 -3.5074e-05 -3.50707e-05 -0.000102225 -0.000102222 -3.50707e-05 -3.50679e-05 -0.000102222 -0.000102223 -0.000102225 -0.000102222 -0.000191851 -0.000191848 -0.000102222 -0.000102223 -0.000191848 -0.000191851 -0.000191863 -0.000191857 -0.000293886 -0.00029388 -0.000191857 -0.000191851 -0.00029388 -0.000293872 -0.000293886 -0.00029388 -0.000401274 -0.000401267 -0.00029388 -0.000293872 -0.000401267 -0.000401258 -0.000191851 -0.000191848 -0.000293872 -0.000293868 -0.000191848 -0.000191851 -0.000293868 -0.000293871 -0.000293872 -0.000293868 -0.000401258 -0.000401252 -0.000293868 -0.000293871 -0.000401252 -0.000401253 -0.000401297 -0.000401291 -0.000510554 -0.000510547 -0.000401291 -0.000401286 -0.000510547 -0.00051054 -0.000510554 -0.000510547 -0.000620347 -0.000620338 -0.000510547 -0.00051054 -0.000620338 -0.000620329 -0.000401286 -0.00040128 -0.00051054 -0.000510534 -0.00040128 -0.000401274 -0.000510534 -0.000510527 -0.00051054 -0.000510534 -0.000620329 -0.000620321 -0.000510534 -0.000510527 -0.000620321 -0.000620313 -0.000620347 -0.000620338 -0.000730267 -0.000730256 -0.000620338 -0.000620329 -0.000730256 -0.000730246 -0.000730267 -0.000730256 -0.000840217 -0.000840204 -0.000730256 -0.000730246 -0.000840204 -0.000840193 -0.000620329 -0.000620321 -0.000730246 -0.000730237 -0.000620321 -0.000620313 -0.000730237 -0.000730228 -0.000730246 -0.000730237 -0.000840193 -0.000840182 -0.000730237 -0.000730228 -0.000840182 -0.000840172 -0.000401274 -0.000401267 -0.000510527 -0.000510519 -0.000401267 -0.000401258 -0.000510519 -0.00051051 -0.000510527 -0.000510519 -0.000620313 -0.000620305 -0.000510519 -0.00051051 -0.000620305 -0.000620296 -0.000401258 -0.000401252 -0.00051051 -0.000510501 -0.000401252 -0.000401253 -0.000510501 -0.000510498 -0.00051051 -0.000510501 -0.000620296 -0.000620287 -0.000510501 -0.000510498 -0.000620287 -0.00062028 -0.000620313 -0.000620305 -0.000730228 -0.000730219 -0.000620305 -0.000620296 -0.000730219 -0.00073021 -0.000730228 -0.000730219 -0.000840172 -0.000840163 -0.000730219 -0.00073021 -0.000840163 -0.000840154 -0.000620296 -0.000620287 -0.00073021 -0.000730201 -0.000620287 -0.00062028 -0.000730201 -0.000730192 -0.00073021 -0.000730201 -0.000840154 -0.000840145 -0.000730201 -0.000730192 -0.000840145 -0.000840136 -3.50679e-05 -3.50657e-05 -0.000102223 -0.000102231 -3.50657e-05 -3.50634e-05 -0.000102231 -0.000102243 -0.000102223 -0.000102231 -0.000191851 -0.000191865 -0.000102231 -0.000102243 -0.000191865 -0.000191884 -3.50634e-05 -3.50584e-05 -0.000102243 -0.000102221 -3.50584e-05 -3.50499e-05 -0.000102221 -0.000102084 -0.000102243 -0.000102221 -0.000191884 -0.000191869 -0.000102221 -0.000102084 -0.000191869 -0.000191719 -0.000191851 -0.000191865 -0.000293871 -0.000293884 -0.000191865 -0.000191884 -0.000293884 -0.000293903 -0.000293871 -0.000293884 -0.000401253 -0.000401263 -0.000293884 -0.000293903 -0.000401263 -0.000401278 -0.000191884 -0.000191869 -0.000293903 -0.0002939 -0.000191869 -0.000191719 -0.0002939 -0.000293818 -0.000293903 -0.0002939 -0.000401278 -0.000401282 -0.0002939 -0.000293818 -0.000401282 -0.000401246 -3.50499e-05 -3.50441e-05 -0.000102084 -0.000101763 -3.50441e-05 -3.50528e-05 -0.000101763 -0.00010137 -0.000102084 -0.000101763 -0.000191719 -0.000191345 -0.000101763 -0.00010137 -0.000191345 -0.000190779 -3.50528e-05 -3.50779e-05 -0.00010137 -0.000101462 -3.50779e-05 -3.50991e-05 -0.000101462 -0.000104011 -0.00010137 -0.000101462 -0.000190779 -0.000190239 -0.000101462 -0.000104011 -0.000190239 -0.000188599 -0.000191719 -0.000191345 -0.000293818 -0.000293608 -0.000191345 -0.000190779 -0.000293608 -0.000293303 -0.000293818 -0.000293608 -0.000401246 -0.000401172 -0.000293608 -0.000293303 -0.000401172 -0.000401111 -0.000190779 -0.000190239 -0.000293303 -0.000292802 -0.000190239 -0.000188599 -0.000292802 -0.000292198 -0.000293303 -0.000292802 -0.000401111 -0.00040119 -0.000292802 -0.000292198 -0.00040119 -0.000401474 -0.000401253 -0.000401263 -0.000510498 -0.000510503 -0.000401263 -0.000401278 -0.000510503 -0.000510517 -0.000510498 -0.000510503 -0.00062028 -0.000620278 -0.000510503 -0.000510517 -0.000620278 -0.000620286 -0.000401278 -0.000401282 -0.000510517 -0.000510527 -0.000401282 -0.000401246 -0.000510527 -0.000510513 -0.000510517 -0.000510527 -0.000620286 -0.0006203 -0.000510527 -0.000510513 -0.0006203 -0.000620309 -0.00062028 -0.000620278 -0.000730192 -0.000730185 -0.000620278 -0.000620286 -0.000730185 -0.000730184 -0.000730192 -0.000730185 -0.000840136 -0.000840128 -0.000730185 -0.000730184 -0.000840128 -0.000840121 -0.000620286 -0.0006203 -0.000730184 -0.00073019 -0.0006203 -0.000620309 -0.00073019 -0.000730204 -0.000730184 -0.00073019 -0.000840121 -0.000840116 -0.00073019 -0.000730204 -0.000840116 -0.000840117 -0.000401246 -0.000401172 -0.000510513 -0.000510468 -0.000401172 -0.000401111 -0.000510468 -0.000510441 -0.000510513 -0.000510468 -0.000620309 -0.000620292 -0.000510468 -0.000510441 -0.000620292 -0.000620244 -0.000401111 -0.00040119 -0.000510441 -0.000510528 -0.00040119 -0.000401474 -0.000510528 -0.000510794 -0.000510441 -0.000510528 -0.000620244 -0.000620188 -0.000510528 -0.000510794 -0.000620188 -0.000620145 -0.000620309 -0.000620292 -0.000730204 -0.000730217 -0.000620292 -0.000620244 -0.000730217 -0.00073021 -0.000730204 -0.000730217 -0.000840117 -0.000840124 -0.000730217 -0.00073021 -0.000840124 -0.000840135 -0.000620244 -0.000620188 -0.00073021 -0.000730169 -0.000620188 -0.000620145 -0.000730169 -0.000730092 -0.00073021 -0.000730169 -0.000840135 -0.000840139 -0.000730169 -0.000730092 -0.000840139 -0.000840133 -0.000840217 -0.000840204 -0.000950176 -0.000950162 -0.000840204 -0.000840193 -0.000950162 -0.000950149 -0.000950176 -0.000950162 -0.00106014 -0.00106013 -0.000950162 -0.000950149 -0.00106013 -0.00106011 -0.000840193 -0.000840182 -0.000950149 -0.000950137 -0.000840182 -0.000840172 -0.000950137 -0.000950126 -0.000950149 -0.000950137 -0.00106011 -0.0010601 -0.000950137 -0.000950126 -0.0010601 -0.00106009 -0.00106014 -0.00106013 -0.00117012 -0.0011701 -0.00106013 -0.00106011 -0.0011701 -0.00117008 -0.00117012 -0.0011701 -0.0012801 -0.00128007 -0.0011701 -0.00117008 -0.00128007 -0.00128006 -0.00106011 -0.0010601 -0.00117008 -0.00117007 -0.0010601 -0.00106009 -0.00117007 -0.00117005 -0.00117008 -0.00117007 -0.00128006 -0.00128004 -0.00117007 -0.00117005 -0.00128004 -0.00128003 -0.000840172 -0.000840163 -0.000950126 -0.000950116 -0.000840163 -0.000840154 -0.000950116 -0.000950107 -0.000950126 -0.000950116 -0.00106009 -0.00106008 -0.000950116 -0.000950107 -0.00106008 -0.00106007 -0.000840154 -0.000840145 -0.000950107 -0.000950098 -0.000840145 -0.000840136 -0.000950098 -0.00095009 -0.000950107 -0.000950098 -0.00106007 -0.00106006 -0.000950098 -0.00095009 -0.00106006 -0.00106005 -0.00106009 -0.00106008 -0.00117005 -0.00117004 -0.00106008 -0.00106007 -0.00117004 -0.00117003 -0.00117005 -0.00117004 -0.00128003 -0.00128002 -0.00117004 -0.00117003 -0.00128002 -0.00128001 -0.00106007 -0.00106006 -0.00117003 -0.00117003 -0.00106006 -0.00106005 -0.00117003 -0.00117002 -0.00117003 -0.00117003 -0.00128001 -0.00128 -0.00117003 -0.00117002 -0.00128 -0.00128 -0.0012801 -0.00128007 -0.00139008 -0.00139006 -0.00128007 -0.00128006 -0.00139006 -0.00139004 -0.00139008 -0.00139006 -0.00150007 -0.00150004 -0.00139006 -0.00139004 -0.00150004 -0.00150002 -0.00128006 -0.00128004 -0.00139004 -0.00139002 -0.00128004 -0.00128003 -0.00139002 -0.00139001 -0.00139004 -0.00139002 -0.00150002 -0.00150001 -0.00139002 -0.00139001 -0.00150001 -0.0015 -0.00150007 -0.00150004 -0.00161005 -0.00161002 -0.00150004 -0.00150002 -0.00161002 -0.00161001 -0.00161005 -0.00161002 -0.00172 -0.00172 -0.00161002 -0.00161001 -0.00172 -0.00172 -0.00150002 -0.00150001 -0.00161001 -0.00161 -0.00150001 -0.0015 -0.00161 -0.00161 -0.00161001 -0.00161 -0.00172 -0.00172 -0.00161 -0.00161 -0.00172 -0.00172 -0.00128003 -0.00128002 -0.00139001 -0.00139 -0.00128002 -0.00128001 -0.00139 -0.00138999 -0.00139001 -0.00139 -0.0015 -0.00149999 -0.00139 -0.00138999 -0.00149999 -0.00149999 -0.00128001 -0.00128 -0.00138999 -0.00138999 -0.00128 -0.00128 -0.00138999 -0.00138998 -0.00138999 -0.00138999 -0.00149999 -0.00149998 -0.00138999 -0.00138998 -0.00149998 -0.00149998 -0.0015 -0.00149999 -0.00161 -0.00160999 -0.00149999 -0.00149999 -0.00160999 -0.00160999 -0.00161 -0.00160999 -0.00172 -0.00172 -0.00160999 -0.00160999 -0.00172 -0.00172 -0.00149999 -0.00149998 -0.00160999 -0.00160999 -0.00149998 -0.00149998 -0.00160999 -0.00160999 -0.00160999 -0.00160999 -0.00172 -0.00172 -0.00160999 -0.00160999 -0.00172 -0.00172 -0.000840136 -0.000840128 -0.00095009 -0.000950082 -0.000840128 -0.000840121 -0.000950082 -0.000950075 -0.00095009 -0.000950082 -0.00106005 -0.00106004 -0.000950082 -0.000950075 -0.00106004 -0.00106004 -0.000840121 -0.000840116 -0.000950075 -0.000950067 -0.000840116 -0.000840117 -0.000950067 -0.00095006 -0.000950075 -0.000950067 -0.00106004 -0.00106003 -0.000950067 -0.00095006 -0.00106003 -0.00106002 -0.00106005 -0.00106004 -0.00117002 -0.00117001 -0.00106004 -0.00106004 -0.00117001 -0.00117001 -0.00117002 -0.00117001 -0.00128 -0.00127999 -0.00117001 -0.00117001 -0.00127999 -0.00127999 -0.00106004 -0.00106003 -0.00117001 -0.00117 -0.00106003 -0.00106002 -0.00117 -0.00117 -0.00117001 -0.00117 -0.00127999 -0.00127998 -0.00117 -0.00117 -0.00127998 -0.00127998 -0.000840117 -0.000840124 -0.00095006 -0.000950053 -0.000840124 -0.000840135 -0.000950053 -0.000950049 -0.00095006 -0.000950053 -0.00106002 -0.00106002 -0.000950053 -0.000950049 -0.00106002 -0.00106001 -0.000840135 -0.000840139 -0.000950049 -0.000950048 -0.000840139 -0.000840133 -0.000950048 -0.000950049 -0.000950049 -0.000950048 -0.00106001 -0.00106 -0.000950048 -0.000950049 -0.00106 -0.00105999 -0.00106002 -0.00106002 -0.00117 -0.00116999 -0.00106002 -0.00106001 -0.00116999 -0.00116999 -0.00117 -0.00116999 -0.00127998 -0.00127997 -0.00116999 -0.00116999 -0.00127997 -0.00127997 -0.00106001 -0.00106 -0.00116999 -0.00116998 -0.00106 -0.00105999 -0.00116998 -0.00116998 -0.00116999 -0.00116998 -0.00127997 -0.00127997 -0.00116998 -0.00116998 -0.00127997 -0.00127996 -0.00128 -0.00127999 -0.00138998 -0.00138998 -0.00127999 -0.00127999 -0.00138998 -0.00138997 -0.00138998 -0.00138998 -0.00149998 -0.00149998 -0.00138998 -0.00138997 -0.00149998 -0.00149997 -0.00127999 -0.00127998 -0.00138997 -0.00138997 -0.00127998 -0.00127998 -0.00138997 -0.00138997 -0.00138997 -0.00138997 -0.00149997 -0.00149997 -0.00138997 -0.00138997 -0.00149997 -0.00149997 -0.00149998 -0.00149998 -0.00160999 -0.00160998 -0.00149998 -0.00149997 -0.00160998 -0.00160998 -0.00160999 -0.00160998 -0.00172 -0.00172 -0.00160998 -0.00160998 -0.00172 -0.00172 -0.00149997 -0.00149997 -0.00160998 -0.00160998 -0.00149997 -0.00149997 -0.00160998 -0.00160998 -0.00160998 -0.00160998 -0.00172 -0.00172 -0.00160998 -0.00160998 -0.00172 -0.00172 -0.00127998 -0.00127997 -0.00138997 -0.00138997 -0.00127997 -0.00127997 -0.00138997 -0.00138996 -0.00138997 -0.00138997 -0.00149997 -0.00149997 -0.00138997 -0.00138996 -0.00149997 -0.00149997 -0.00127997 -0.00127997 -0.00138996 -0.00138996 -0.00127997 -0.00127996 -0.00138996 -0.00138996 -0.00138996 -0.00138996 -0.00149997 -0.00149996 -0.00138996 -0.00138996 -0.00149996 -0.00149996 -0.00149997 -0.00149997 -0.00160998 -0.00160998 -0.00149997 -0.00149997 -0.00160998 -0.00160998 -0.00160998 -0.00160998 -0.00172 -0.00172 -0.00160998 -0.00160998 -0.00172 -0.00172 -0.00149997 -0.00149996 -0.00160998 -0.00160998 -0.00149996 -0.00149996 -0.00160998 -0.00160998 -0.00160998 -0.00160998 -0.00172 -0.00172 -0.00160998 -0.00160998 -0.00172 -0.00172 -3.50991e-05 -6.46836e-05 -0.000104011 -0.000102602 -6.46836e-05 -7.28353e-05 -0.000102602 -0.000103937 -0.000104011 -0.000102602 -0.000188599 -0.000186772 -0.000102602 -0.000103937 -0.000186772 -0.000184881 -7.28353e-05 -7.32478e-05 -0.000103937 -0.00010372 -7.32478e-05 -7.19948e-05 -0.00010372 -0.000102402 -0.000103937 -0.00010372 -0.000184881 -0.000183969 -0.00010372 -0.000102402 -0.000183969 -0.000183118 -0.000188599 -0.000186772 -0.000292198 -0.000291512 -0.000186772 -0.000184881 -0.000291512 -0.000291152 -0.000292198 -0.000291512 -0.000401474 -0.000401973 -0.000291512 -0.000291152 -0.000401973 -0.000402501 -0.000184881 -0.000183969 -0.000291152 -0.000290952 -0.000183969 -0.000183118 -0.000290952 -0.000290776 -0.000291152 -0.000290952 -0.000402501 -0.00040285 -0.000290952 -0.000290776 -0.00040285 -0.000402903 -7.19948e-05 -7.08394e-05 -0.000102402 -0.000101118 -7.08394e-05 -7.00883e-05 -0.000101118 -0.000100444 -0.000102402 -0.000101118 -0.000183118 -0.000182389 -0.000101118 -0.000100444 -0.000182389 -0.000182028 -7.00883e-05 -6.97784e-05 -0.000100444 -0.000100325 -6.97784e-05 -6.98216e-05 -0.000100325 -0.000100449 -0.000100444 -0.000100325 -0.000182028 -0.000182001 -0.000100325 -0.000100449 -0.000182001 -0.000182096 -0.000183118 -0.000182389 -0.000290776 -0.000290537 -0.000182389 -0.000182028 -0.000290537 -0.000290385 -0.000290776 -0.000290537 -0.000402903 -0.000402795 -0.000290537 -0.000290385 -0.000402795 -0.000402701 -0.000182028 -0.000182001 -0.000290385 -0.00029037 -0.000182001 -0.000182096 -0.00029037 -0.000290421 -0.000290385 -0.00029037 -0.000402701 -0.000402693 -0.00029037 -0.000290421 -0.000402693 -0.000402735 -0.000401474 -0.000401973 -0.000510794 -0.000511168 -0.000401973 -0.000402501 -0.000511168 -0.00051148 -0.000510794 -0.000511168 -0.000620145 -0.000620101 -0.000511168 -0.00051148 -0.000620101 -0.000620017 -0.000402501 -0.00040285 -0.00051148 -0.000511584 -0.00040285 -0.000402903 -0.000511584 -0.000511508 -0.00051148 -0.000511584 -0.000620017 -0.000619894 -0.000511584 -0.000511508 -0.000619894 -0.000619785 -0.000620145 -0.000620101 -0.000730092 -0.000729992 -0.000620101 -0.000620017 -0.000729992 -0.000729895 -0.000730092 -0.000729992 -0.000840133 -0.000840122 -0.000729992 -0.000729895 -0.000840122 -0.000840118 -0.000620017 -0.000619894 -0.000729895 -0.000729832 -0.000619894 -0.000619785 -0.000729832 -0.000729822 -0.000729895 -0.000729832 -0.000840118 -0.00084013 -0.000729832 -0.000729822 -0.00084013 -0.000840152 -0.000402903 -0.000402795 -0.000511508 -0.000511394 -0.000402795 -0.000402701 -0.000511394 -0.00051135 -0.000511508 -0.000511394 -0.000619785 -0.000619745 -0.000511394 -0.00051135 -0.000619745 -0.000619769 -0.000402701 -0.000402693 -0.00051135 -0.000511377 -0.000402693 -0.000402735 -0.000511377 -0.000511421 -0.00051135 -0.000511377 -0.000619769 -0.00061981 -0.000511377 -0.000511421 -0.00061981 -0.000619836 -0.000619785 -0.000619745 -0.000729822 -0.00072985 -0.000619745 -0.000619769 -0.00072985 -0.000729885 -0.000729822 -0.00072985 -0.000840152 -0.000840169 -0.00072985 -0.000729885 -0.000840169 -0.000840173 -0.000619769 -0.00061981 -0.000729885 -0.000729902 -0.00061981 -0.000619836 -0.000729902 -0.000729903 -0.000729885 -0.000729902 -0.000840173 -0.000840168 -0.000729902 -0.000729903 -0.000840168 -0.000840159 -6.98216e-05 -6.99761e-05 -0.000100449 -0.000100572 -6.99761e-05 -7.00584e-05 -0.000100572 -0.000100619 -0.000100449 -0.000100572 -0.000182096 -0.000182171 -0.000100572 -0.000100619 -0.000182171 -0.000182195 -7.00584e-05 -7.00554e-05 -0.000100619 -0.000100608 -7.00554e-05 -7.00262e-05 -0.000100608 -0.000100583 -0.000100619 -0.000100608 -0.000182195 -0.000182189 -0.000100608 -0.000100583 -0.000182189 -0.000182174 -0.000182096 -0.000182171 -0.000290421 -0.00029047 -0.000182171 -0.000182195 -0.00029047 -0.000290492 -0.000290421 -0.00029047 -0.000402735 -0.000402776 -0.00029047 -0.000290492 -0.000402776 -0.000402792 -0.000182195 -0.000182189 -0.000290492 -0.00029049 -0.000182189 -0.000182174 -0.00029049 -0.000290476 -0.000290492 -0.00029049 -0.000402792 -0.000402785 -0.00029049 -0.000290476 -0.000402785 -0.00040277 -7.00262e-05 -7.00068e-05 -0.000100583 -0.000100569 -7.00068e-05 -7.00012e-05 -0.000100569 -0.000100566 -0.000100583 -0.000100569 -0.000182174 -0.000182163 -0.000100569 -0.000100566 -0.000182163 -0.000182158 -7.00012e-05 -7.00017e-05 -0.000100566 -0.000100566 -7.00017e-05 -7.00025e-05 -0.000100566 -0.000100566 -0.000100566 -0.000100566 -0.000182158 -0.000182157 -0.000100566 -0.000100566 -0.000182157 -0.000182155 -0.000182174 -0.000182163 -0.000290476 -0.000290464 -0.000182163 -0.000182158 -0.000290464 -0.000290459 -0.000290476 -0.000290464 -0.00040277 -0.000402759 -0.000290464 -0.000290459 -0.000402759 -0.000402753 -0.000182158 -0.000182157 -0.000290459 -0.000290456 -0.000182157 -0.000182155 -0.000290456 -0.000290453 -0.000290459 -0.000290456 -0.000402753 -0.00040275 -0.000290456 -0.000290453 -0.00040275 -0.000402745 -0.000402735 -0.000402776 -0.000511421 -0.000511447 -0.000402776 -0.000402792 -0.000511447 -0.000511448 -0.000511421 -0.000511447 -0.000619836 -0.00061984 -0.000511447 -0.000511448 -0.00061984 -0.00061983 -0.000402792 -0.000402785 -0.000511448 -0.000511435 -0.000402785 -0.00040277 -0.000511435 -0.000511421 -0.000511448 -0.000511435 -0.00061983 -0.000619816 -0.000511435 -0.000511421 -0.000619816 -0.000619806 -0.000619836 -0.00061984 -0.000729903 -0.000729894 -0.00061984 -0.00061983 -0.000729894 -0.000729883 -0.000729903 -0.000729894 -0.000840159 -0.000840149 -0.000729894 -0.000729883 -0.000840149 -0.000840139 -0.00061983 -0.000619816 -0.000729883 -0.000729872 -0.000619816 -0.000619806 -0.000729872 -0.000729862 -0.000729883 -0.000729872 -0.000840139 -0.00084013 -0.000729872 -0.000729862 -0.00084013 -0.00084012 -0.00040277 -0.000402759 -0.000511421 -0.000511412 -0.000402759 -0.000402753 -0.000511412 -0.000511406 -0.000511421 -0.000511412 -0.000619806 -0.000619798 -0.000511412 -0.000511406 -0.000619798 -0.000619791 -0.000402753 -0.00040275 -0.000511406 -0.000511401 -0.00040275 -0.000402745 -0.000511401 -0.000511394 -0.000511406 -0.000511401 -0.000619791 -0.000619783 -0.000511401 -0.000511394 -0.000619783 -0.000619775 -0.000619806 -0.000619798 -0.000729862 -0.000729854 -0.000619798 -0.000619791 -0.000729854 -0.000729845 -0.000729862 -0.000729854 -0.00084012 -0.000840111 -0.000729854 -0.000729845 -0.000840111 -0.000840101 -0.000619791 -0.000619783 -0.000729845 -0.000729836 -0.000619783 -0.000619775 -0.000729836 -0.000729826 -0.000729845 -0.000729836 -0.000840101 -0.00084009 -0.000729836 -0.000729826 -0.00084009 -0.000840078 -0.000840133 -0.000840122 -0.000950049 -0.000950052 -0.000840122 -0.000840118 -0.000950052 -0.000950056 -0.000950049 -0.000950052 -0.00105999 -0.00105999 -0.000950052 -0.000950056 -0.00105999 -0.00105998 -0.000840118 -0.00084013 -0.000950056 -0.000950059 -0.00084013 -0.000840152 -0.000950059 -0.000950057 -0.000950056 -0.000950059 -0.00105998 -0.00105997 -0.000950059 -0.000950057 -0.00105997 -0.00105997 -0.00105999 -0.00105999 -0.00116998 -0.00116998 -0.00105999 -0.00105998 -0.00116998 -0.00116997 -0.00116998 -0.00116998 -0.00127996 -0.00127996 -0.00116998 -0.00116997 -0.00127996 -0.00127996 -0.00105998 -0.00105997 -0.00116997 -0.00116997 -0.00105997 -0.00105997 -0.00116997 -0.00116997 -0.00116997 -0.00116997 -0.00127996 -0.00127996 -0