# vtk DataFile Version 3.0
#This file was generated by the deal.II library on 2022/11/17 at 1:14:04
ASCII
DATASET UNSTRUCTURED_GRID

POINTS 10240 double
0.4375 0.75 0
0.46875 0.75 0
0.4375 0.78125 0
0.46875 0.78125 0
0.46875 0.75 0
0.5 0.75 0
0.46875 0.78125 0
0.5 0.78125 0
0.4375 0.78125 0
0.46875 0.78125 0
0.4375 0.8125 0
0.46875 0.8125 0
0.46875 0.78125 0
0.5 0.78125 0
0.46875 0.8125 0
0.5 0.8125 0
0.4375 0.8125 0
0.46875 0.8125 0
0.4375 0.84375 0
0.46875 0.84375 0
0.46875 0.8125 0
0.5 0.8125 0
0.46875 0.84375 0
0.5 0.84375 0
0.4375 0.84375 0
0.46875 0.84375 0
0.4375 0.875 0
0.46875 0.875 0
0.46875 0.84375 0
0.5 0.84375 0
0.46875 0.875 0
0.5 0.875 0
0.375 0.875 0
0.40625 0.875 0
0.375 0.90625 0
0.40625 0.90625 0
0.40625 0.875 0
0.4375 0.875 0
0.40625 0.90625 0
0.4375 0.90625 0
0.375 0.90625 0
0.40625 0.90625 0
0.375 0.9375 0
0.40625 0.9375 0
0.40625 0.90625 0
0.4375 0.90625 0
0.40625 0.9375 0
0.4375 0.9375 0
0.4375 0.875 0
0.46875 0.875 0
0.4375 0.90625 0
0.46875 0.90625 0
0.46875 0.875 0
0.5 0.875 0
0.46875 0.90625 0
0.5 0.90625 0
0.4375 0.90625 0
0.46875 0.90625 0
0.4375 0.9375 0
0.46875 0.9375 0
0.46875 0.90625 0
0.5 0.90625 0
0.46875 0.9375 0
0.5 0.9375 0
0.625 0.5 0
0.65625 0.5 0
0.625 0.53125 0
0.65625 0.53125 0
0.65625 0.5 0
0.6875 0.5 0
0.65625 0.53125 0
0.6875 0.53125 0
0.625 0.53125 0
0.65625 0.53125 0
0.625 0.5625 0
0.65625 0.5625 0
0.65625 0.53125 0
0.6875 0.53125 0
0.65625 0.5625 0
0.6875 0.5625 0
0.6875 0.5 0
0.71875 0.5 0
0.6875 0.53125 0
0.71875 0.53125 0
0.71875 0.5 0
0.75 0.5 0
0.71875 0.53125 0
0.75 0.53125 0
0.6875 0.53125 0
0.71875 0.53125 0
0.6875 0.5625 0
0.71875 0.5625 0
0.71875 0.53125 0
0.75 0.53125 0
0.71875 0.5625 0
0.75 0.5625 0
0.625 0.5625 0
0.65625 0.5625 0
0.625 0.59375 0
0.65625 0.59375 0
0.65625 0.5625 0
0.6875 0.5625 0
0.65625 0.59375 0
0.6875 0.59375 0
0.625 0.59375 0
0.65625 0.59375 0
0.625 0.625 0
0.65625 0.625 0
0.65625 0.59375 0
0.6875 0.59375 0
0.65625 0.625 0
0.6875 0.625 0
0.6875 0.5625 0
0.71875 0.5625 0
0.6875 0.59375 0
0.71875 0.59375 0
0.71875 0.5625 0
0.75 0.5625 0
0.71875 0.59375 0
0.75 0.59375 0
0.6875 0.59375 0
0.71875 0.59375 0
0.6875 0.625 0
0.71875 0.625 0
0.71875 0.59375 0
0.75 0.59375 0
0.71875 0.625 0
0.75 0.625 0
0.5625 0.625 0
0.59375 0.625 0
0.5625 0.65625 0
0.59375 0.65625 0
0.59375 0.625 0
0.625 0.625 0
0.59375 0.65625 0
0.625 0.65625 0
0.5625 0.65625 0
0.59375 0.65625 0
0.5625 0.6875 0
0.59375 0.6875 0
0.59375 0.65625 0
0.625 0.65625 0
0.59375 0.6875 0
0.625 0.6875 0
0.5 0.6875 0
0.53125 0.6875 0
0.5 0.71875 0
0.53125 0.71875 0
0.53125 0.6875 0
0.5625 0.6875 0
0.53125 0.71875 0
0.5625 0.71875 0
0.5 0.71875 0
0.53125 0.71875 0
0.5 0.75 0
0.53125 0.75 0
0.53125 0.71875 0
0.5625 0.71875 0
0.53125 0.75 0
0.5625 0.75 0
0.5625 0.6875 0
0.59375 0.6875 0
0.5625 0.71875 0
0.59375 0.71875 0
0.59375 0.6875 0
0.625 0.6875 0
0.59375 0.71875 0
0.625 0.71875 0
0.5625 0.71875 0
0.59375 0.71875 0
0.5625 0.75 0
0.59375 0.75 0
0.59375 0.71875 0
0.625 0.71875 0
0.59375 0.75 0
0.625 0.75 0
0.625 0.625 0
0.65625 0.625 0
0.625 0.65625 0
0.65625 0.65625 0
0.65625 0.625 0
0.6875 0.625 0
0.65625 0.65625 0
0.6875 0.65625 0
0.625 0.65625 0
0.65625 0.65625 0
0.625 0.6875 0
0.65625 0.6875 0
0.65625 0.65625 0
0.6875 0.65625 0
0.65625 0.6875 0
0.6875 0.6875 0
0.6875 0.625 0
0.71875 0.625 0
0.6875 0.65625 0
0.71875 0.65625 0
0.71875 0.625 0
0.75 0.625 0
0.71875 0.65625 0
0.75 0.65625 0
0.6875 0.65625 0
0.71875 0.65625 0
0.6875 0.6875 0
0.71875 0.6875 0
0.71875 0.65625 0
0.75 0.65625 0
0.71875 0.6875 0
0.75 0.6875 0
0.625 0.6875 0
0.65625 0.6875 0
0.625 0.71875 0
0.65625 0.71875 0
0.65625 0.6875 0
0.6875 0.6875 0
0.65625 0.71875 0
0.6875 0.71875 0
0.625 0.71875 0
0.65625 0.71875 0
0.625 0.75 0
0.65625 0.75 0
0.65625 0.71875 0
0.6875 0.71875 0
0.65625 0.75 0
0.6875 0.75 0
0.6875 0.6875 0
0.71875 0.6875 0
0.6875 0.71875 0
0.71875 0.71875 0
0.71875 0.6875 0
0.75 0.6875 0
0.71875 0.71875 0
0.75 0.71875 0
0.6875 0.71875 0
0.71875 0.71875 0
0.6875 0.75 0
0.71875 0.75 0
0.71875 0.71875 0
0.75 0.71875 0
0.71875 0.75 0
0.75 0.75 0
0.75 0.5 0
0.78125 0.5 0
0.75 0.53125 0
0.78125 0.53125 0
0.78125 0.5 0
0.8125 0.5 0
0.78125 0.53125 0
0.8125 0.53125 0
0.75 0.53125 0
0.78125 0.53125 0
0.75 0.5625 0
0.78125 0.5625 0
0.78125 0.53125 0
0.8125 0.53125 0
0.78125 0.5625 0
0.8125 0.5625 0
0.8125 0.5 0
0.84375 0.5 0
0.8125 0.53125 0
0.84375 0.53125 0
0.84375 0.5 0
0.875 0.5 0
0.84375 0.53125 0
0.875 0.53125 0
0.8125 0.53125 0
0.84375 0.53125 0
0.8125 0.5625 0
0.84375 0.5625 0
0.84375 0.53125 0
0.875 0.53125 0
0.84375 0.5625 0
0.875 0.5625 0
0.75 0.5625 0
0.78125 0.5625 0
0.75 0.59375 0
0.78125 0.59375 0
0.78125 0.5625 0
0.8125 0.5625 0
0.78125 0.59375 0
0.8125 0.59375 0
0.75 0.59375 0
0.78125 0.59375 0
0.75 0.625 0
0.78125 0.625 0
0.78125 0.59375 0
0.8125 0.59375 0
0.78125 0.625 0
0.8125 0.625 0
0.8125 0.5625 0
0.84375 0.5625 0
0.8125 0.59375 0
0.84375 0.59375 0
0.84375 0.5625 0
0.875 0.5625 0
0.84375 0.59375 0
0.875 0.59375 0
0.8125 0.59375 0
0.84375 0.59375 0
0.8125 0.625 0
0.84375 0.625 0
0.84375 0.59375 0
0.875 0.59375 0
0.84375 0.625 0
0.875 0.625 0
0.875 0.5 0
0.90625 0.5 0
0.875 0.53125 0
0.90625 0.53125 0
0.90625 0.5 0
0.9375 0.5 0
0.90625 0.53125 0
0.9375 0.53125 0
0.875 0.53125 0
0.90625 0.53125 0
0.875 0.5625 0
0.90625 0.5625 0
0.90625 0.53125 0
0.9375 0.53125 0
0.90625 0.5625 0
0.9375 0.5625 0
0.9375 0.5 0
0.96875 0.5 0
0.9375 0.53125 0
0.96875 0.53125 0
0.96875 0.5 0
1 0.5 0
0.96875 0.53125 0
1 0.53125 0
0.9375 0.53125 0
0.96875 0.53125 0
0.9375 0.5625 0
0.96875 0.5625 0
0.96875 0.53125 0
1 0.53125 0
0.96875 0.5625 0
1 0.5625 0
0.875 0.5625 0
0.90625 0.5625 0
0.875 0.59375 0
0.90625 0.59375 0
0.90625 0.5625 0
0.9375 0.5625 0
0.90625 0.59375 0
0.9375 0.59375 0
0.875 0.59375 0
0.90625 0.59375 0
0.875 0.625 0
0.90625 0.625 0
0.90625 0.59375 0
0.9375 0.59375 0
0.90625 0.625 0
0.9375 0.625 0
0.9375 0.5625 0
0.96875 0.5625 0
0.9375 0.59375 0
0.96875 0.59375 0
0.96875 0.5625 0
1 0.5625 0
0.96875 0.59375 0
1 0.59375 0
0.9375 0.59375 0
0.96875 0.59375 0
0.9375 0.625 0
0.96875 0.625 0
0.96875 0.59375 0
1 0.59375 0
0.96875 0.625 0
1 0.625 0
0.75 0.625 0
0.78125 0.625 0
0.75 0.65625 0
0.78125 0.65625 0
0.78125 0.625 0
0.8125 0.625 0
0.78125 0.65625 0
0.8125 0.65625 0
0.75 0.65625 0
0.78125 0.65625 0
0.75 0.6875 0
0.78125 0.6875 0
0.78125 0.65625 0
0.8125 0.65625 0
0.78125 0.6875 0
0.8125 0.6875 0
0.8125 0.625 0
0.84375 0.625 0
0.8125 0.65625 0
0.84375 0.65625 0
0.84375 0.625 0
0.875 0.625 0
0.84375 0.65625 0
0.875 0.65625 0
0.8125 0.65625 0
0.84375 0.65625 0
0.8125 0.6875 0
0.84375 0.6875 0
0.84375 0.65625 0
0.875 0.65625 0
0.84375 0.6875 0
0.875 0.6875 0
0.75 0.6875 0
0.78125 0.6875 0
0.75 0.71875 0
0.78125 0.71875 0
0.78125 0.6875 0
0.8125 0.6875 0
0.78125 0.71875 0
0.8125 0.71875 0
0.75 0.71875 0
0.78125 0.71875 0
0.75 0.75 0
0.78125 0.75 0
0.78125 0.71875 0
0.8125 0.71875 0
0.78125 0.75 0
0.8125 0.75 0
0.8125 0.6875 0
0.84375 0.6875 0
0.8125 0.71875 0
0.84375 0.71875 0
0.84375 0.6875 0
0.875 0.6875 0
0.84375 0.71875 0
0.875 0.71875 0
0.8125 0.71875 0
0.84375 0.71875 0
0.8125 0.75 0
0.84375 0.75 0
0.84375 0.71875 0
0.875 0.71875 0
0.84375 0.75 0
0.875 0.75 0
0.875 0.625 0
0.90625 0.625 0
0.875 0.65625 0
0.90625 0.65625 0
0.90625 0.625 0
0.9375 0.625 0
0.90625 0.65625 0
0.9375 0.65625 0
0.875 0.65625 0
0.90625 0.65625 0
0.875 0.6875 0
0.90625 0.6875 0
0.90625 0.65625 0
0.9375 0.65625 0
0.90625 0.6875 0
0.9375 0.6875 0
0.9375 0.625 0
0.96875 0.625 0
0.9375 0.65625 0
0.96875 0.65625 0
0.96875 0.625 0
1 0.625 0
0.96875 0.65625 0
1 0.65625 0
0.9375 0.65625 0
0.96875 0.65625 0
0.9375 0.6875 0
0.96875 0.6875 0
0.96875 0.65625 0
1 0.65625 0
0.96875 0.6875 0
1 0.6875 0
0.875 0.6875 0
0.90625 0.6875 0
0.875 0.71875 0
0.90625 0.71875 0
0.90625 0.6875 0
0.9375 0.6875 0
0.90625 0.71875 0
0.9375 0.71875 0
0.875 0.71875 0
0.90625 0.71875 0
0.875 0.75 0
0.90625 0.75 0
0.90625 0.71875 0
0.9375 0.71875 0
0.90625 0.75 0
0.9375 0.75 0
0.9375 0.6875 0
0.96875 0.6875 0
0.9375 0.71875 0
0.96875 0.71875 0
0.96875 0.6875 0
1 0.6875 0
0.96875 0.71875 0
1 0.71875 0
0.9375 0.71875 0
0.96875 0.71875 0
0.9375 0.75 0
0.96875 0.75 0
0.96875 0.71875 0
1 0.71875 0
0.96875 0.75 0
1 0.75 0
0.5 0.75 0
0.53125 0.75 0
0.5 0.78125 0
0.53125 0.78125 0
0.53125 0.75 0
0.5625 0.75 0
0.53125 0.78125 0
0.5625 0.78125 0
0.5 0.78125 0
0.53125 0.78125 0
0.5 0.8125 0
0.53125 0.8125 0
0.53125 0.78125 0
0.5625 0.78125 0
0.53125 0.8125 0
0.5625 0.8125 0
0.5625 0.75 0
0.59375 0.75 0
0.5625 0.78125 0
0.59375 0.78125 0
0.59375 0.75 0
0.625 0.75 0
0.59375 0.78125 0
0.625 0.78125 0
0.5625 0.78125 0
0.59375 0.78125 0
0.5625 0.8125 0
0.59375 0.8125 0
0.59375 0.78125 0
0.625 0.78125 0
0.59375 0.8125 0
0.625 0.8125 0
0.5 0.8125 0
0.53125 0.8125 0
0.5 0.84375 0
0.53125 0.84375 0
0.53125 0.8125 0
0.5625 0.8125 0
0.53125 0.84375 0
0.5625 0.84375 0
0.5 0.84375 0
0.53125 0.84375 0
0.5 0.875 0
0.53125 0.875 0
0.53125 0.84375 0
0.5625 0.84375 0
0.53125 0.875 0
0.5625 0.875 0
0.5625 0.8125 0
0.59375 0.8125 0
0.5625 0.84375 0
0.59375 0.84375 0
0.59375 0.8125 0
0.625 0.8125 0
0.59375 0.84375 0
0.625 0.84375 0
0.5625 0.84375 0
0.59375 0.84375 0
0.5625 0.875 0
0.59375 0.875 0
0.59375 0.84375 0
0.625 0.84375 0
0.59375 0.875 0
0.625 0.875 0
0.625 0.75 0
0.65625 0.75 0
0.625 0.78125 0
0.65625 0.78125 0
0.65625 0.75 0
0.6875 0.75 0
0.65625 0.78125 0
0.6875 0.78125 0
0.625 0.78125 0
0.65625 0.78125 0
0.625 0.8125 0
0.65625 0.8125 0
0.65625 0.78125 0
0.6875 0.78125 0
0.65625 0.8125 0
0.6875 0.8125 0
0.6875 0.75 0
0.71875 0.75 0
0.6875 0.78125 0
0.71875 0.78125 0
0.71875 0.75 0
0.75 0.75 0
0.71875 0.78125 0
0.75 0.78125 0
0.6875 0.78125 0
0.71875 0.78125 0
0.6875 0.8125 0
0.71875 0.8125 0
0.71875 0.78125 0
0.75 0.78125 0
0.71875 0.8125 0
0.75 0.8125 0
0.625 0.8125 0
0.65625 0.8125 0
0.625 0.84375 0
0.65625 0.84375 0
0.65625 0.8125 0
0.6875 0.8125 0
0.65625 0.84375 0
0.6875 0.84375 0
0.625 0.84375 0
0.65625 0.84375 0
0.625 0.875 0
0.65625 0.875 0
0.65625 0.84375 0
0.6875 0.84375 0
0.65625 0.875 0
0.6875 0.875 0
0.6875 0.8125 0
0.71875 0.8125 0
0.6875 0.84375 0
[...]
POINT_DATA 10240
SCALARS x_dis double 1
LOOKUP_TABLE default
-0.000108687 -7.74782e-05 -0.000211562 -0.0001706 -7.74782e-05 -4.8588e-05 -0.0001706 -0.000131748 -0.000211562 -0.0001706 -0.00030455 -0.000255036 -0.0001706 -0.000131748 -0.000255036 -0.000207583 -0.00030455 -0.000255036 -0.000385833 -0.000329229 -0.000255036 -0.000207583 -0.000329229 -0.000274516 -0.000385833 -0.000329229 -0.000453819 -0.000391693 -0.000329229 -0.000274516 -0.000391693 -0.000331062 -0.000579029 -0.000516495 -0.000640502 -0.000574896 -0.000516495 -0.000453819 -0.000574896 -0.000508074 -0.000640502 -0.000574896 -0.000684696 -0.000617248 -0.000574896 -0.000508074 -0.000617248 -0.000547747 -0.000453819 -0.000391693 -0.000508074 -0.000441442 -0.000391693 -0.000331062 -0.000441442 -0.000376006 -0.000508074 -0.000441442 -0.000547747 -0.000477794 -0.000441442 -0.000376006 -0.000477794 -0.00040867 0.000432759 0.000376868 0.000396809 0.000358531 0.000376868 0.000333627 0.000358531 0.000325425 0.000396809 0.000358531 0.000344611 0.000324472 0.000358531 0.000325425 0.000324472 0.000303863 0.000333627 0.000298802 0.000325425 0.000297536 0.000298802 0.000270398 0.000297536 0.000274363 0.000325425 0.000297536 0.000303863 0.000285109 0.000297536 0.000274363 0.000285109 0.000268993 0.000344611 0.000324472 0.000296061 0.000285523 0.000324472 0.000303863 0.000285523 0.000275105 0.000296061 0.000285523 0.000249633 0.000245622 0.000285523 0.000275105 0.000245622 0.000243003 0.000303863 0.000285109 0.000275105 0.000265282 0.000285109 0.000268993 0.000265282 0.000256737 0.000275105 0.000265282 0.000243003 0.000241056 0.000265282 0.000256737 0.000241056 0.000239798 0.00026937 0.000256503 0.000206104 0.000202234 0.000256503 0.000249633 0.000202234 0.000202095 0.000206104 0.000202234 0.00013937 0.000145264 0.000202234 0.000202095 0.000145264 0.000153327 0.000130068 0.000134614 3.92762e-05 5.54772e-05 0.000134614 0.00013937 5.54772e-05 7.11231e-05 3.92762e-05 5.54772e-05 -4.8588e-05 -2.163e-05 5.54772e-05 7.11231e-05 -2.163e-05 4.27118e-06 0.00013937 0.000145264 7.11231e-05 8.70965e-05 0.000145264 0.000153327 8.70965e-05 0.000103814 7.11231e-05 8.70965e-05 4.27118e-06 2.96451e-05 8.70965e-05 0.000103814 2.96451e-05 5.48215e-05 0.000249633 0.000245622 0.000202095 0.000204879 0.000245622 0.000243003 0.000204879 0.000209211 0.000202095 0.000204879 0.000153327 0.000163286 0.000204879 0.000209211 0.000163286 0.000174452 0.000243003 0.000241056 0.000209211 0.000214313 0.000241056 0.000239798 0.000214313 0.000219844 0.000209211 0.000214313 0.000174452 0.000186176 0.000214313 0.000219844 0.000186176 0.000198059 0.000153327 0.000163286 0.000103814 0.000121329 0.000163286 0.000174452 0.000121329 0.000139339 0.000103814 0.000121329 5.48215e-05 7.98549e-05 0.000121329 0.000139339 7.98549e-05 0.000104614 0.000174452 0.000186176 0.000139339 0.000157452 0.000186176 0.000198059 0.000157452 0.000175335 0.000139339 0.000157452 0.000104614 0.000128881 0.000157452 0.000175335 0.000128881 0.000152429 0.000270398 0.000247288 0.000274363 0.000255402 0.000247288 0.000228772 0.000255402 0.000240225 0.000274363 0.000255402 0.000268993 0.000255699 0.000255402 0.000240225 0.000255699 0.000245169 0.000228772 0.000214364 0.000240225 0.000228468 0.000214364 0.000203676 0.000228468 0.0002198 0.000240225 0.000228468 0.000245169 0.000237249 0.000228468 0.0002198 0.000237249 0.000231742 0.000268993 0.000255699 0.000256737 0.000249839 0.000255699 0.000245169 0.000249839 0.000244729 0.000256737 0.000249839 0.000239798 0.000239405 0.000249839 0.000244729 0.000239405 0.000239999 0.000245169 0.000237249 0.000244729 0.000241404 0.000237249 0.000231742 0.000241404 0.000239775 0.000244729 0.000241404 0.000239999 0.000241617 0.000241404 0.000239775 0.000241617 0.000244217 0.000203676 0.000196319 0.0002198 0.000213893 0.000196319 0.000191815 0.000213893 0.000210387 0.0002198 0.000213893 0.000231742 0.000228416 0.000213893 0.000210387 0.000228416 0.000226998 0.000191815 0.000189561 0.000210387 0.000208885 0.000189561 0.000188976 0.000208885 0.00020884 0.000210387 0.000208885 0.000226998 0.000227121 0.000208885 0.00020884 0.000227121 0.000228197 0.000231742 0.000228416 0.000239775 0.000239689 0.000228416 0.000226998 0.000239689 0.000240917 0.000239775 0.000239689 0.000244217 0.000247685 0.000239689 0.000240917 0.000247685 0.000251812 0.000226998 0.000227121 0.000240917 0.000243096 0.000227121 0.000228197 0.000243096 0.000245602 0.000240917 0.000243096 0.000251812 0.000256254 0.000243096 0.000245602 0.000256254 0.000260439 0.000239798 0.000239405 0.000219844 0.000225732 0.000239405 0.000239999 0.000225732 0.000231978 0.000219844 0.000225732 0.000198059 0.000209887 0.000225732 0.000231978 0.000209887 0.000221549 0.000239999 0.000241617 0.000231978 0.000238578 0.000241617 0.000244217 0.000238578 0.000245481 0.000231978 0.000238578 0.000221549 0.000232969 0.000238578 0.000245481 0.000232969 0.000244063 0.000198059 0.000209887 0.000175335 0.000192739 0.000209887 0.000221549 0.000192739 0.00020949 0.000175335 0.000192739 0.000152429 0.000175036 0.000192739 0.00020949 0.000175036 0.000196513 0.000221549 0.000232969 0.00020949 0.000225457 0.000232969 0.000244063 0.000225457 0.000240517 0.00020949 0.000225457 0.000196513 0.000216694 0.000225457 0.000240517 0.000216694 0.000235431 0.000244217 0.000247685 0.000245481 0.000252578 0.000247685 0.000251812 0.000252578 0.000259678 0.000245481 0.000252578 0.000244063 0.000254711 0.000252578 0.000259678 0.000254711 0.000264741 0.000251812 0.000256254 0.000259678 0.000266477 0.000256254 0.000260439 0.000266477 0.000272513 0.000259678 0.000266477 0.000264741 0.000273911 0.000266477 0.000272513 0.000273911 0.000281894 0.000244063 0.000254711 0.000240517 0.00025454 0.000254711 0.000264741 0.00025454 0.000267378 0.000240517 0.00025454 0.000235431 0.000252588 0.00025454 0.000267378 0.000252588 0.000268054 0.000264741 0.000273911 0.000267378 0.000278864 0.000273911 0.000281894 0.000278864 0.00028882 0.000267378 0.000278864 0.000268054 0.000281745 0.000278864 0.00028882 0.000281745 0.00029363 -4.8588e-05 -2.163e-05 -0.000131748 -9.48458e-05 -2.163e-05 4.27118e-06 -9.48458e-05 -5.95584e-05 -0.000131748 -9.48458e-05 -0.000207583 -0.000162197 -9.48458e-05 -5.95584e-05 -0.000162197 -0.00011868 4.27118e-06 2.96451e-05 -5.95584e-05 -2.54677e-05 2.96451e-05 5.48215e-05 -2.54677e-05 7.66941e-06 -5.95584e-05 -2.54677e-05 -0.00011868 -7.67944e-05 -2.54677e-05 7.66941e-06 -7.67944e-05 -3.6382e-05 -0.000207583 -0.000162197 -0.000274516 -0.000221953 -0.000162197 -0.00011868 -0.000221953 -0.00017149 -0.000274516 -0.000221953 -0.000331062 -0.000272536 -0.000221953 -0.00017149 -0.000272536 -0.000216414 -0.00011868 -7.67944e-05 -0.00017149 -0.000122925 -7.67944e-05 -3.6382e-05 -0.000122925 -7.61303e-05 -0.00017149 -0.000122925 -0.000216414 -0.000162546 -0.000122925 -7.61303e-05 -0.000162546 -0.000110467 5.48215e-05 7.98549e-05 7.66941e-06 3.98989e-05 7.98549e-05 0.000104614 3.98989e-05 7.11254e-05 7.66941e-06 3.98989e-05 -3.6382e-05 2.52625e-06 3.98989e-05 7.11254e-05 2.52625e-06 3.97842e-05 0.000104614 0.000128881 7.11254e-05 0.000101225 0.000128881 0.000152429 0.000101225 0.00013006 7.11254e-05 0.000101225 3.97842e-05 7.52664e-05 0.000101225 0.00013006 7.52664e-05 0.000108939 -3.6382e-05 2.52625e-06 -7.61303e-05 -3.11827e-05 2.52625e-06 3.97842e-05 -3.11827e-05 1.15153e-05 -7.61303e-05 -3.11827e-05 -0.000110467 -6.02889e-05 -3.11827e-05 1.15153e-05 -6.02889e-05 -1.26967e-05 3.97842e-05 7.52664e-05 1.15153e-05 5.18078e-05 7.52664e-05 0.000108939 5.18078e-05 8.97488e-05 1.15153e-05 5.18078e-05 -1.26967e-05 3.15317e-05 5.18078e-05 8.97488e-05 3.15317e-05 7.3179e-05 -0.000331062 -0.000272536 -0.000376006 -0.000312593 -0.000272536 -0.000216414 -0.000312593 -0.000251882 -0.000376006 -0.000312593 -0.00040867 -0.000341345 -0.000312593 -0.000251882 -0.000341345 -0.000276687 -0.000216414 -0.000162546 -0.000251882 -0.000194269 -0.000162546 -0.000110467 -0.000194269 -0.000138971 -0.000251882 -0.000194269 -0.000276687 -0.000215817 -0.000194269 -0.000138971 -0.000215817 -0.000160461 -0.000110467 -6.02889e-05 -0.000138971 -8.39503e-05 -6.02889e-05 -1.26967e-05 -8.39503e-05 -3.24693e-05 -0.000138971 -8.39503e-05 -0.000160461 -0.000104862 -8.39503e-05 -3.24693e-05 -0.000104862 -4.67811e-05 -1.26967e-05 3.15317e-05 -3.24693e-05 1.52068e-05 3.15317e-05 7.3179e-05 1.52068e-05 5.96247e-05 -3.24693e-05 1.52068e-05 -4.67811e-05 7.84375e-07 1.52068e-05 5.96247e-05 7.84375e-07 5.19694e-05 -4.67811e-05 7.84375e-07 -6.20111e-05 3.40084e-06 7.84375e-07 5.19694e-05 3.40084e-06 5.22496e-05 -6.20111e-05 3.40084e-06 -1.01575e-05 1.94975e-05 3.40084e-06 5.22496e-05 1.94975e-05 5.47521e-05 0.000152429 0.000175036 0.00013006 0.000157473 0.000175036 0.000196513 0.000157473 0.000183285 0.00013006 0.000157473 0.000108939 0.000140718 0.000157473 0.000183285 0.000140718 0.000170455 0.000196513 0.000216694 0.000183285 0.000207316 0.000216694 0.000235431 0.000207316 0.000229399 0.000183285 0.000207316 0.000170455 0.000197943 0.000207316 0.000229399 0.000197943 0.00022301 0.000108939 0.000140718 8.97488e-05 0.000125435 0.000140718 0.000170455 0.000125435 0.00015866 8.97488e-05 0.000125435 7.3179e-05 0.000112265 0.000125435 0.00015866 0.000112265 0.000148579 0.000170455 0.000197943 0.00015866 0.000189187 0.000197943 0.00022301 0.000189187 0.000216825 0.00015866 0.000189187 0.000148579 0.000181624 0.000189187 0.000216825 0.000181624 0.000211345 0.000235431 0.000252588 0.000229399 0.000249408 0.000252588 0.000268054 0.000249408 0.000267276 0.000229399 0.000249408 0.00022301 0.00024555 0.000249408 0.000267276 0.00024555 0.000265555 0.000268054 0.000281745 0.000267276 0.00028301 0.000281745 0.00029363 0.00028301 0.000296719 0.000267276 0.00028301 0.000265555 0.000283124 0.00028301 0.000296719 0.000283124 0.000298497 0.00022301 0.00024555 0.000216825 0.000241531 0.00024555 0.000265555 0.000241531 0.000263368 0.000216825 0.000241531 0.000211345 0.000237797 0.000241531 0.000263368 0.000237797 0.000261124 0.000265555 0.000283124 0.000263368 0.000282526 0.000283124 0.000298497 0.000282526 0.000299359 0.000263368 0.000282526 0.000261124 0.000281596 0.000282526 0.000299359 0.000281596 0.000299648 7.3179e-05 0.000112265 5.96247e-05 0.000102226 0.000112265 0.000148579 0.000102226 0.000140884 5.96247e-05 0.000102226 5.19694e-05 9.63634e-05 0.000102226 0.000140884 9.63634e-05 0.000136023 0.000148579 0.000181624 0.000140884 0.000175738 0.000181624 0.000211345 0.000175738 0.000206955 0.000140884 0.000175738 0.000136023 0.000171777 0.000175738 0.000206955 0.000171777 0.000203862 5.19694e-05 9.63634e-05 5.22496e-05 9.46098e-05 9.63634e-05 0.000136023 9.46098e-05 0.000133772 5.22496e-05 9.46098e-05 5.47521e-05 9.47154e-05 9.46098e-05 0.000133772 9.47154e-05 0.000133213 0.000136023 0.000171777 0.000133772 0.000169641 0.000171777 0.000203862 0.000169641 0.00020208 0.000133772 0.000169641 0.000133213 0.000168995 0.000169641 0.00020208 0.000168995 0.000201507 0.000211345 0.000237797 0.000206955 0.00023469 0.000237797 0.000261124 0.00023469 0.000259142 0.000206955 0.00023469 0.000203862 0.000232416 0.00023469 0.000259142 0.000232416 0.000257629 0.000261124 0.000281596 0.000259142 0.000280628 0.000281596 0.000299648 0.000280628 0.000299638 0.000259142 0.000280628 0.000257629 0.000279827 0.000280628 0.000299638 0.000279827 0.00029952 0.000203862 0.000232416 0.00020208 0.000231055 0.000232416 0.000257629 0.000231055 0.000256695 0.00020208 0.000231055 0.000201507 0.000230606 0.000231055 0.000256695 0.000230606 0.000256382 0.000257629 0.000279827 0.000256695 0.000279311 0.000279827 0.00029952 0.000279311 0.000299412 0.000256695 0.000279311 0.000256382 0.000279134 0.000279311 0.000299412 0.000279134 0.00029937 -0.000651775 -0.000614471 -0.000644337 -0.000607184 -0.000614471 -0.000576272 -0.000607184 -0.000569235 -0.000644337 -0.000607184 -0.000622044 -0.000585379 -0.000607184 -0.000569235 -0.000585379 -0.000548204 -0.000576272 -0.000538453 -0.000569235 -0.000531744 -0.000538453 -0.000501934 -0.000531744 -0.000495604 -0.000569235 -0.000531744 -0.000548204 -0.000511709 -0.000531744 -0.000495604 -0.000511709 -0.000476718 -0.000622044 -0.000585379 -0.00058497 -0.000549227 -0.000585379 -0.000548204 -0.000549227 -0.000513422 -0.00058497 -0.000549227 -0.000533276 -0.00049905 -0.000549227 -0.000513422 -0.00049905 -0.000465333 -0.000548204 -0.000511709 -0.000513422 -0.000478644 -0.000511709 -0.000476718 -0.000478644 -0.000445603 -0.000513422 -0.000478644 -0.000465333 -0.000433076 -0.000478644 -0.000445603 -0.000433076 -0.00040284 -0.000533276 -0.00049905 -0.000467265 -0.000435349 -0.00049905 -0.000465333 -0.000435349 -0.0004046 -0.000467265 -0.000435349 -0.000387318 -0.000358718 -0.000435349 -0.0004046 -0.000358718 -0.000332258 -0.000465333 -0.000433076 -0.0004046 -0.000375814 -0.000433076 -0.00040284 -0.000375814 -0.000349299 -0.0004046 -0.000375814 -0.000332258 -0.000307999 -0.000375814 -0.000349299 -0.000307999 -0.000286131 -0.000332258 -0.000307999 -0.00024977 -0.00023099 -0.000307999 -0.000286131 -0.00023099 -0.000214785 -0.00024977 -0.00023099 -0.000158291 -0.000146419 -0.00023099 -0.000214785 -0.000146419 -0.000136965 -0.000158291 -0.000146419 -6.00967e-05 -5.64083e-05 -0.000146419 -0.000136965 -5.64083e-05 -5.47465e-05 -6.00967e-05 -5.64083e-05 4.22601e-05 3.65865e-05 -5.64083e-05 -5.47465e-05 3.65865e-05 2.93217e-05 -0.000501934 -0.000467308 -0.000495604 -0.000461387 -0.000467308 -0.000434927 -0.000461387 -0.000429425 -0.000495604 -0.000461387 -0.000476718 -0.000443735 -0.000461387 -0.000429425 -0.000443735 -0.000413033 -0.000434927 -0.000404973 -0.000429425 -0.000399884 -0.000404973 -0.00037747 -0.000399884 -0.000372775 -0.000429425 -0.000399884 -0.000413033 -0.000384729 -0.000399884 -0.000372775 -0.000384729 -0.000358794 -0.000476718 -0.000443735 -0.000445603 -0.000414694 -0.000443735 -0.000413033 -0.000414694 -0.000386094 -0.000445603 -0.000414694 -0.00040284 -0.000374867 -0.000414694 -0.000386094 -0.000374867 -0.000349211 -0.000413033 -0.000384729 -0.000386094 -0.000359846 -0.000384729 -0.000358794 -0.000359846 -0.000335853 -0.000386094 -0.000359846 -0.000349211 -0.000325811 -0.000359846 -0.000335853 -0.000325811 -0.000304506 -0.00037747 -0.000352332 -0.000372775 -0.000348002 -0.000352332 -0.000329428 -0.000348002 -0.00032543 -0.000372775 -0.000348002 -0.000358794 -0.000335114 -0.000348002 -0.00032543 -0.000335114 -0.000313532 -0.000329428 -0.000308576 -0.00032543 -0.000304873 -0.000308576 -0.000289567 -0.000304873 -0.000286121 -0.00032543 -0.000304873 -0.000313532 -0.000293855 -0.000304873 -0.000286121 -0.000293855 -0.000275867 -0.000358794 -0.000335114 -0.000335853 -0.000313974 -0.000335114 -0.000313532 -0.000313974 -0.000294025 -0.000335853 -0.000313974 -0.000304506 -0.000285109 -0.000313974 -0.000294025 -0.000285109 -0.000267401 -0.000313532 -0.000293855 -0.000294025 -0.000275795 -0.000293855 -0.000275867 -0.000275795 -0.000259064 -0.000294025 -0.000275795 -0.000267401 -0.000251155 -0.000275795 -0.000259064 -0.000251155 -0.000236149 -0.00040284 -0.000374867 -0.000349299 -0.000325132 -0.000374867 -0.000349211 -0.000325132 -0.000303253 -0.000349299 -0.000325132 -0.000286131 -0.000266662 -0.000325132 -0.000303253 -0.000266662 -0.000249354 -0.000349211 -0.000325811 -0.000303253 -0.000283465 -0.000325811 -0.000304506 -0.000283465 -0.000265552 -0.000303253 -0.000283465 -0.000249354 -0.000233911 -0.000283465 -0.000265552 -0.000233911 -0.000220042 -0.000286131 -0.000266662 -0.000214785 -0.000200892 -0.000266662 -0.000249354 -0.000200892 -0.000188935 -0.000214785 -0.000200892 -0.000136965 -0.000129549 -0.000200892 -0.000188935 -0.000129549 -0.000123711 -0.000249354 -0.000233911 -0.000188935 -0.000178525 -0.000233911 -0.000220042 -0.000178525 -0.000169275 -0.000188935 -0.000178525 -0.000123711 -0.000118941 -0.000178525 -0.000169275 -0.000118941 -0.000114782 -0.000304506 -0.000285109 -0.000265552 -0.00024927 -0.000285109 -0.000267401 -0.00024927 -0.000234366 -0.000265552 -0.00024927 -0.000220042 -0.000207444 -0.00024927 -0.000234366 -0.000207444 -0.000195837 -0.000267401 -0.000251155 -0.000234366 -0.000220596 -0.000251155 -0.000236149 -0.000220596 -0.000207742 -0.000234366 -0.000220596 -0.000195837 -0.000184973 -0.000220596 -0.000207742 -0.000184973 -0.000174644 -0.000220042 -0.000207444 -0.000169275 -0.000160843 -0.000207444 -0.000195837 -0.000160843 -0.00015294 -0.000169275 -0.000160843 -0.000114782 -0.000110887 -0.000160843 -0.00015294 -0.000110887 -0.000106983 -0.000195837 -0.000184973 -0.00015294 -0.000145331 -0.000184973 -0.000174644 -0.000145331 -0.000137828 -0.00015294 -0.000145331 -0.000106983 -0.000102871 -0.000145331 -0.000137828 -0.000102871 -9.84064e-05 -0.000289567 -0.000272175 -0.000286121 -0.000268947 -0.000272175 -0.00025615 -0.000268947 -0.000253106 -0.000286121 -0.000268947 -0.000275867 -0.000259346 -0.000268947 -0.000253106 -0.000259346 -0.000244054 -0.00025615 -0.000241218 -0.000253106 -0.000238329 -0.000241218 -0.000227065 -0.000238329 -0.000224306 -0.000253106 -0.000238329 -0.000244054 -0.000229737 -0.000238329 -0.000224306 -0.000229737 -0.000216104 -0.000275867 -0.000259346 -0.000259064 -0.000243617 -0.000259346 -0.000244054 -0.000243617 -0.00022923 -0.000259064 -0.000243617 -0.000236149 -0.000222175 -0.000243617 -0.00022923 -0.000222175 -0.000209032 -0.000244054 -0.000229737 -0.00022923 -0.000215671 -0.000229737 -0.000216104 -0.000215671 -0.000202682 -0.00022923 -0.000215671 -0.000209032 -0.000196516 -0.000215671 -0.000202682 -0.000196516 -0.000184413 -0.000227065 -0.000213314 -0.000224306 -0.000210671 -0.000213314 -0.000199503 -0.000210671 -0.00019697 -0.000224306 -0.000210671 -0.000216104 -0.000202813 -0.000210671 -0.00019697 -0.000202813 -0.000189439 -0.000199503 -0.000185055 -0.00019697 -0.000182636 -0.000185055 -0.000169244 -0.000182636 -0.000166957 -0.00019697 -0.000182636 -0.000189439 -0.000175445 -0.000182636 -0.000166957 -0.000175445 -0.000160158 -0.000216104 -0.000202813 -0.000202682 -0.000189958 -0.000202813 -0.000189439 -0.000189958 -0.000177119 -0.000202682 -0.000189958 -0.000184413 -0.000172468 -0.000189958 -0.000177119 -0.000172468 -0.000160364 -0.000189439 -0.000175445 -0.000177119 -0.000163685 -0.000175445 -0.000160158 -0.000163685 -0.000149041 -0.000177119 -0.000163685 -0.000160364 -0.000147694 -0.000163685 -0.000149041 -0.000147694 -0.000133929 -0.000236149 -0.000222175 -0.000207742 -0.000195609 -0.000222175 -0.000209032 -0.000195609 -0.000184022 -0.000207742 -0.000195609 -0.000174644 -0.000164675 -0.000195609 -0.000184022 -0.000164675 -0.000154922 -0.000209032 -0.000196516 -0.000184022 -0.000172816 -0.000196516 -0.000184413 -0.000172816 -0.000161824 -0.000184022 -0.000172816 -0.000154922 -0.000145265 -0.000172816 -0.000161824 -0.000145265 -0.00013559 -0.000174644 -0.000164675 -0.000137828 -0.000130286 -0.000164675 -0.000154922 -0.000130286 -0.000122602 -0.000137828 -0.000130286 -9.84064e-05 -9.34882e-05 -0.000130286 -0.000122602 -9.34882e-05 -8.80534e-05 -0.000154922 -0.000145265 -0.000122602 -0.0001147 -0.000145265 -0.00013559 -0.0001147 -0.000106521 -0.000122602 -0.0001147 -8.80534e-05 -8.20706e-05 -0.0001147 -0.000106521 -8.20706e-05 -7.55356e-05 -0.000184413 -0.000172468 -0.000161824 -0.000150855 -0.000172468 -0.000160364 -0.000150855 -0.000139667 -0.000161824 -0.000150855 -0.00013559 -0.000125774 -0.000150855 -0.000139667 -0.000125774 -0.000115663 -0.000160364 -0.000147694 -0.000139667 -0.000127946 -0.000147694 -0.000133929 -0.000127946 -0.000115275 -0.000139667 -0.000127946 -0.000115663 -0.000105052 -0.000127946 -0.000115275 -0.000105052 -9.36579e-05 -0.00013559 -0.000125774 -0.000106521 -9.80133e-05 -0.000125774 -0.000115663 -9.80133e-05 -8.91157e-05 -0.000106521 -9.80133e-05 -7.55356e-05 -6.84649e-05 -9.80133e-05 -8.91157e-05 -6.84649e-05 -6.08902e-05 -0.000115663 -0.000105052 -8.91157e-05 -7.97434e-05 -0.000105052 -9.36579e-05 -7.97434e-05 -6.97703e-05 -8.91157e-05 -7.97434e-05 -6.08902e-05 -5.28523e-05 -7.97434e-05 -6.97703e-05 -5.28523e-05 -4.43954e-05 -0.000136965 -0.000129549 -5.47465e-05 -5.47049e-05 -0.000129549 -