# vtk DataFile Version 3.0
#This file was generated by the deal.II library on 2022/11/17 at 0:30:19
ASCII
DATASET UNSTRUCTURED_GRID

POINTS 9856 double
0.4375 0.75 0
0.46875 0.75 0
0.4375 0.78125 0
0.46875 0.78125 0
0.46875 0.75 0
0.5 0.75 0
0.46875 0.78125 0
0.5 0.78125 0
0.4375 0.78125 0
0.46875 0.78125 0
0.4375 0.8125 0
0.46875 0.8125 0
0.46875 0.78125 0
0.5 0.78125 0
0.46875 0.8125 0
0.5 0.8125 0
0.4375 0.8125 0
0.46875 0.8125 0
0.4375 0.84375 0
0.46875 0.84375 0
0.46875 0.8125 0
0.5 0.8125 0
0.46875 0.84375 0
0.5 0.84375 0
0.4375 0.84375 0
0.46875 0.84375 0
0.4375 0.875 0
0.46875 0.875 0
0.46875 0.84375 0
0.5 0.84375 0
0.46875 0.875 0
0.5 0.875 0
0.375 0.875 0
0.40625 0.875 0
0.375 0.90625 0
0.40625 0.90625 0
0.40625 0.875 0
0.4375 0.875 0
0.40625 0.90625 0
0.4375 0.90625 0
0.375 0.90625 0
0.40625 0.90625 0
0.375 0.9375 0
0.40625 0.9375 0
0.40625 0.90625 0
0.4375 0.90625 0
0.40625 0.9375 0
0.4375 0.9375 0
0.4375 0.875 0
0.46875 0.875 0
0.4375 0.90625 0
0.46875 0.90625 0
0.46875 0.875 0
0.5 0.875 0
0.46875 0.90625 0
0.5 0.90625 0
0.4375 0.90625 0
0.46875 0.90625 0
0.4375 0.9375 0
0.46875 0.9375 0
0.46875 0.90625 0
0.5 0.90625 0
0.46875 0.9375 0
0.5 0.9375 0
0.5625 0.5625 0
0.59375 0.5625 0
0.5625 0.59375 0
0.59375 0.59375 0
0.59375 0.5625 0
0.625 0.5625 0
0.59375 0.59375 0
0.625 0.59375 0
0.5625 0.59375 0
0.59375 0.59375 0
0.5625 0.625 0
0.59375 0.625 0
0.59375 0.59375 0
0.625 0.59375 0
0.59375 0.625 0
0.625 0.625 0
0.625 0.5 0
0.65625 0.5 0
0.625 0.53125 0
0.65625 0.53125 0
0.65625 0.5 0
0.6875 0.5 0
0.65625 0.53125 0
0.6875 0.53125 0
0.625 0.53125 0
0.65625 0.53125 0
0.625 0.5625 0
0.65625 0.5625 0
0.65625 0.53125 0
0.6875 0.53125 0
0.65625 0.5625 0
0.6875 0.5625 0
0.6875 0.5 0
0.71875 0.5 0
0.6875 0.53125 0
0.71875 0.53125 0
0.71875 0.5 0
0.75 0.5 0
0.71875 0.53125 0
0.75 0.53125 0
0.6875 0.53125 0
0.71875 0.53125 0
0.6875 0.5625 0
0.71875 0.5625 0
0.71875 0.53125 0
0.75 0.53125 0
0.71875 0.5625 0
0.75 0.5625 0
0.625 0.5625 0
0.65625 0.5625 0
0.625 0.59375 0
0.65625 0.59375 0
0.65625 0.5625 0
0.6875 0.5625 0
0.65625 0.59375 0
0.6875 0.59375 0
0.625 0.59375 0
0.65625 0.59375 0
0.625 0.625 0
0.65625 0.625 0
0.65625 0.59375 0
0.6875 0.59375 0
0.65625 0.625 0
0.6875 0.625 0
0.6875 0.5625 0
0.71875 0.5625 0
0.6875 0.59375 0
0.71875 0.59375 0
0.71875 0.5625 0
0.75 0.5625 0
0.71875 0.59375 0
0.75 0.59375 0
0.6875 0.59375 0
0.71875 0.59375 0
0.6875 0.625 0
0.71875 0.625 0
0.71875 0.59375 0
0.75 0.59375 0
0.71875 0.625 0
0.75 0.625 0
0.5625 0.625 0
0.59375 0.625 0
0.5625 0.65625 0
0.59375 0.65625 0
0.59375 0.625 0
0.625 0.625 0
0.59375 0.65625 0
0.625 0.65625 0
0.5625 0.65625 0
0.59375 0.65625 0
0.5625 0.6875 0
0.59375 0.6875 0
0.59375 0.65625 0
0.625 0.65625 0
0.59375 0.6875 0
0.625 0.6875 0
0.5 0.6875 0
0.53125 0.6875 0
0.5 0.71875 0
0.53125 0.71875 0
0.53125 0.6875 0
0.5625 0.6875 0
0.53125 0.71875 0
0.5625 0.71875 0
0.5 0.71875 0
0.53125 0.71875 0
0.5 0.75 0
0.53125 0.75 0
0.53125 0.71875 0
0.5625 0.71875 0
0.53125 0.75 0
0.5625 0.75 0
0.5625 0.6875 0
0.59375 0.6875 0
0.5625 0.71875 0
0.59375 0.71875 0
0.59375 0.6875 0
0.625 0.6875 0
0.59375 0.71875 0
0.625 0.71875 0
0.5625 0.71875 0
0.59375 0.71875 0
0.5625 0.75 0
0.59375 0.75 0
0.59375 0.71875 0
0.625 0.71875 0
0.59375 0.75 0
0.625 0.75 0
0.625 0.625 0
0.65625 0.625 0
0.625 0.65625 0
0.65625 0.65625 0
0.65625 0.625 0
0.6875 0.625 0
0.65625 0.65625 0
0.6875 0.65625 0
0.625 0.65625 0
0.65625 0.65625 0
0.625 0.6875 0
0.65625 0.6875 0
0.65625 0.65625 0
0.6875 0.65625 0
0.65625 0.6875 0
0.6875 0.6875 0
0.6875 0.625 0
0.71875 0.625 0
0.6875 0.65625 0
0.71875 0.65625 0
0.71875 0.625 0
0.75 0.625 0
0.71875 0.65625 0
0.75 0.65625 0
0.6875 0.65625 0
0.71875 0.65625 0
0.6875 0.6875 0
0.71875 0.6875 0
0.71875 0.65625 0
0.75 0.65625 0
0.71875 0.6875 0
0.75 0.6875 0
0.625 0.6875 0
0.65625 0.6875 0
0.625 0.71875 0
0.65625 0.71875 0
0.65625 0.6875 0
0.6875 0.6875 0
0.65625 0.71875 0
0.6875 0.71875 0
0.625 0.71875 0
0.65625 0.71875 0
0.625 0.75 0
0.65625 0.75 0
0.65625 0.71875 0
0.6875 0.71875 0
0.65625 0.75 0
0.6875 0.75 0
0.6875 0.6875 0
0.71875 0.6875 0
0.6875 0.71875 0
0.71875 0.71875 0
0.71875 0.6875 0
0.75 0.6875 0
0.71875 0.71875 0
0.75 0.71875 0
0.6875 0.71875 0
0.71875 0.71875 0
0.6875 0.75 0
0.71875 0.75 0
0.71875 0.71875 0
0.75 0.71875 0
0.71875 0.75 0
0.75 0.75 0
0.75 0.5 0
0.78125 0.5 0
0.75 0.53125 0
0.78125 0.53125 0
0.78125 0.5 0
0.8125 0.5 0
0.78125 0.53125 0
0.8125 0.53125 0
0.75 0.53125 0
0.78125 0.53125 0
0.75 0.5625 0
0.78125 0.5625 0
0.78125 0.53125 0
0.8125 0.53125 0
0.78125 0.5625 0
0.8125 0.5625 0
0.8125 0.5 0
0.84375 0.5 0
0.8125 0.53125 0
0.84375 0.53125 0
0.84375 0.5 0
0.875 0.5 0
0.84375 0.53125 0
0.875 0.53125 0
0.8125 0.53125 0
0.84375 0.53125 0
0.8125 0.5625 0
0.84375 0.5625 0
0.84375 0.53125 0
0.875 0.53125 0
0.84375 0.5625 0
0.875 0.5625 0
0.75 0.5625 0
0.78125 0.5625 0
0.75 0.59375 0
0.78125 0.59375 0
0.78125 0.5625 0
0.8125 0.5625 0
0.78125 0.59375 0
0.8125 0.59375 0
0.75 0.59375 0
0.78125 0.59375 0
0.75 0.625 0
0.78125 0.625 0
0.78125 0.59375 0
0.8125 0.59375 0
0.78125 0.625 0
0.8125 0.625 0
0.8125 0.5625 0
0.84375 0.5625 0
0.8125 0.59375 0
0.84375 0.59375 0
0.84375 0.5625 0
0.875 0.5625 0
0.84375 0.59375 0
0.875 0.59375 0
0.8125 0.59375 0
0.84375 0.59375 0
0.8125 0.625 0
0.84375 0.625 0
0.84375 0.59375 0
0.875 0.59375 0
0.84375 0.625 0
0.875 0.625 0
0.875 0.5 0
0.90625 0.5 0
0.875 0.53125 0
0.90625 0.53125 0
0.90625 0.5 0
0.9375 0.5 0
0.90625 0.53125 0
0.9375 0.53125 0
0.875 0.53125 0
0.90625 0.53125 0
0.875 0.5625 0
0.90625 0.5625 0
0.90625 0.53125 0
0.9375 0.53125 0
0.90625 0.5625 0
0.9375 0.5625 0
0.9375 0.5 0
0.96875 0.5 0
0.9375 0.53125 0
0.96875 0.53125 0
0.96875 0.5 0
1 0.5 0
0.96875 0.53125 0
1 0.53125 0
0.9375 0.53125 0
0.96875 0.53125 0
0.9375 0.5625 0
0.96875 0.5625 0
0.96875 0.53125 0
1 0.53125 0
0.96875 0.5625 0
1 0.5625 0
0.875 0.5625 0
0.90625 0.5625 0
0.875 0.59375 0
0.90625 0.59375 0
0.90625 0.5625 0
0.9375 0.5625 0
0.90625 0.59375 0
0.9375 0.59375 0
0.875 0.59375 0
0.90625 0.59375 0
0.875 0.625 0
0.90625 0.625 0
0.90625 0.59375 0
0.9375 0.59375 0
0.90625 0.625 0
0.9375 0.625 0
0.9375 0.5625 0
0.96875 0.5625 0
0.9375 0.59375 0
0.96875 0.59375 0
0.96875 0.5625 0
1 0.5625 0
0.96875 0.59375 0
1 0.59375 0
0.9375 0.59375 0
0.96875 0.59375 0
0.9375 0.625 0
0.96875 0.625 0
0.96875 0.59375 0
1 0.59375 0
0.96875 0.625 0
1 0.625 0
0.75 0.625 0
0.78125 0.625 0
0.75 0.65625 0
0.78125 0.65625 0
0.78125 0.625 0
0.8125 0.625 0
0.78125 0.65625 0
0.8125 0.65625 0
0.75 0.65625 0
0.78125 0.65625 0
0.75 0.6875 0
0.78125 0.6875 0
0.78125 0.65625 0
0.8125 0.65625 0
0.78125 0.6875 0
0.8125 0.6875 0
0.8125 0.625 0
0.84375 0.625 0
0.8125 0.65625 0
0.84375 0.65625 0
0.84375 0.625 0
0.875 0.625 0
0.84375 0.65625 0
0.875 0.65625 0
0.8125 0.65625 0
0.84375 0.65625 0
0.8125 0.6875 0
0.84375 0.6875 0
0.84375 0.65625 0
0.875 0.65625 0
0.84375 0.6875 0
0.875 0.6875 0
0.75 0.6875 0
0.78125 0.6875 0
0.75 0.71875 0
0.78125 0.71875 0
0.78125 0.6875 0
0.8125 0.6875 0
0.78125 0.71875 0
0.8125 0.71875 0
0.75 0.71875 0
0.78125 0.71875 0
0.75 0.75 0
0.78125 0.75 0
0.78125 0.71875 0
0.8125 0.71875 0
0.78125 0.75 0
0.8125 0.75 0
0.8125 0.6875 0
0.84375 0.6875 0
0.8125 0.71875 0
0.84375 0.71875 0
0.84375 0.6875 0
0.875 0.6875 0
0.84375 0.71875 0
0.875 0.71875 0
0.8125 0.71875 0
0.84375 0.71875 0
0.8125 0.75 0
0.84375 0.75 0
0.84375 0.71875 0
0.875 0.71875 0
0.84375 0.75 0
0.875 0.75 0
0.875 0.625 0
0.90625 0.625 0
0.875 0.65625 0
0.90625 0.65625 0
0.90625 0.625 0
0.9375 0.625 0
0.90625 0.65625 0
0.9375 0.65625 0
0.875 0.65625 0
0.90625 0.65625 0
0.875 0.6875 0
0.90625 0.6875 0
0.90625 0.65625 0
0.9375 0.65625 0
0.90625 0.6875 0
0.9375 0.6875 0
0.9375 0.625 0
0.96875 0.625 0
0.9375 0.65625 0
0.96875 0.65625 0
0.96875 0.625 0
1 0.625 0
0.96875 0.65625 0
1 0.65625 0
0.9375 0.65625 0
0.96875 0.65625 0
0.9375 0.6875 0
0.96875 0.6875 0
0.96875 0.65625 0
1 0.65625 0
0.96875 0.6875 0
1 0.6875 0
0.875 0.6875 0
0.90625 0.6875 0
0.875 0.71875 0
0.90625 0.71875 0
0.90625 0.6875 0
0.9375 0.6875 0
0.90625 0.71875 0
0.9375 0.71875 0
0.875 0.71875 0
0.90625 0.71875 0
0.875 0.75 0
0.90625 0.75 0
0.90625 0.71875 0
0.9375 0.71875 0
0.90625 0.75 0
0.9375 0.75 0
0.9375 0.6875 0
0.96875 0.6875 0
0.9375 0.71875 0
0.96875 0.71875 0
0.96875 0.6875 0
1 0.6875 0
0.96875 0.71875 0
1 0.71875 0
0.9375 0.71875 0
0.96875 0.71875 0
0.9375 0.75 0
0.96875 0.75 0
0.96875 0.71875 0
1 0.71875 0
0.96875 0.75 0
1 0.75 0
0.5 0.75 0
0.53125 0.75 0
0.5 0.78125 0
0.53125 0.78125 0
0.53125 0.75 0
0.5625 0.75 0
0.53125 0.78125 0
0.5625 0.78125 0
0.5 0.78125 0
0.53125 0.78125 0
0.5 0.8125 0
0.53125 0.8125 0
0.53125 0.78125 0
0.5625 0.78125 0
0.53125 0.8125 0
0.5625 0.8125 0
0.5625 0.75 0
0.59375 0.75 0
0.5625 0.78125 0
0.59375 0.78125 0
0.59375 0.75 0
0.625 0.75 0
0.59375 0.78125 0
0.625 0.78125 0
0.5625 0.78125 0
0.59375 0.78125 0
0.5625 0.8125 0
0.59375 0.8125 0
0.59375 0.78125 0
0.625 0.78125 0
0.59375 0.8125 0
0.625 0.8125 0
0.5 0.8125 0
0.53125 0.8125 0
0.5 0.84375 0
0.53125 0.84375 0
0.53125 0.8125 0
0.5625 0.8125 0
0.53125 0.84375 0
0.5625 0.84375 0
0.5 0.84375 0
0.53125 0.84375 0
0.5 0.875 0
0.53125 0.875 0
0.53125 0.84375 0
0.5625 0.84375 0
0.53125 0.875 0
0.5625 0.875 0
0.5625 0.8125 0
0.59375 0.8125 0
0.5625 0.84375 0
0.59375 0.84375 0
0.59375 0.8125 0
0.625 0.8125 0
0.59375 0.84375 0
0.625 0.84375 0
0.5625 0.84375 0
0.59375 0.84375 0
0.5625 0.875 0
0.59375 0.875 0
0.59375 0.84375 0
0.625 0.84375 0
0.59375 0.875 0
0.625 0.875 0
0.625 0.75 0
0.65625 0.75 0
0.625 0.78125 0
0.65625 0.78125 0
0.65625 0.75 0
0.6875 0.75 0
0.65625 0.78125 0
0.6875 0.78125 0
0.625 0.78125 0
0.65625 0.78125 0
0.625 0.8125 0
0.65625 0.8125 0
0.65625 0.78125 0
0.6875 0.78125 0
0.65625 0.8125 0
0.6875 0.8125 0
0.6875 0.75 0
0.71875 0.75 0
0.6875 0.78125 0
0.71875 0.78125 0
0.71875 0.75 0
0.75 0.75 0
0.71875 0.78125 0
0.75 0.78125 0
0.6875 0.78125 0
0.71875 0.78125 0
0.6875 0.8125 0
0.71875 0.8125 0
0.71875 0.78125 0
0.75 0.78125 0
0.71875 0.8125 0
0.75 0.8125 0
0.625 0.8125 0
0.65625 0.8125 0
0.625 0.84375 0
[...]
POINT_DATA 9856
SCALARS x_dis double 1
LOOKUP_TABLE default
-0.000140789 -0.000235877 -0.000177516 -0.000272081 -0.000235877 -0.000322586 -0.000272081 -0.000358978 -0.000177516 -0.000272081 -0.000207002 -0.000301285 -0.000272081 -0.000358978 -0.000301285 -0.00038849 -0.000207002 -0.000301285 -0.000230496 -0.000324561 -0.000301285 -0.00038849 -0.000324561 -0.000412119 -0.000230496 -0.000324561 -0.000248905 -0.000342831 -0.000324561 -0.000412119 -0.000342831 -0.00043066 -4.72163e-05 -0.000149955 -6.20467e-05 -0.000164503 -0.000149955 -0.000248905 -0.000164503 -0.000262994 -6.20467e-05 -0.000164503 -7.18577e-05 -0.000175028 -0.000164503 -0.000262994 -0.000175028 -0.000273039 -0.000248905 -0.000342831 -0.000262994 -0.000356663 -0.000342831 -0.00043066 -0.000356663 -0.000444661 -0.000262994 -0.000356663 -0.000273039 -0.000366354 -0.000356663 -0.000444661 -0.000366354 -0.000454045 8.45138e-05 6.85787e-05 -7.3403e-05 -9.6037e-05 6.85787e-05 4.5637e-05 -9.6037e-05 -0.000113954 -7.3403e-05 -9.6037e-05 -0.00018997 -0.000221752 -9.6037e-05 -0.000113954 -0.000221752 -0.000243791 0.000435995 0.000352248 0.000235262 0.000183237 0.000352248 0.000277291 0.000183237 0.000132185 0.000235262 0.000183237 4.5637e-05 1.68438e-05 0.000183237 0.000132185 1.68438e-05 -1.51843e-05 0.000277291 0.000210893 0.000132185 8.41455e-05 0.000210893 0.000152971 8.41455e-05 4.03926e-05 0.000132185 8.41455e-05 -1.51843e-05 -4.77273e-05 8.41455e-05 4.03926e-05 -4.77273e-05 -7.89683e-05 4.5637e-05 1.68438e-05 -0.000113954 -0.000133079 1.68438e-05 -1.51843e-05 -0.000133079 -0.000154027 -0.000113954 -0.000133079 -0.000243791 -0.00026173 -0.000133079 -0.000154027 -0.00026173 -0.000278464 -1.51843e-05 -4.77273e-05 -0.000154027 -0.000175976 -4.77273e-05 -7.89683e-05 -0.000175976 -0.000197818 -0.000154027 -0.000175976 -0.000278464 -0.00029485 -0.000175976 -0.000197818 -0.00029485 -0.000310842 -0.00018997 -0.000221752 -0.000281409 -0.000320683 -0.000221752 -0.000243791 -0.000320683 -0.000348759 -0.000281409 -0.000320683 -0.000355188 -0.000400376 -0.000320683 -0.000348759 -0.000400376 -0.000434268 -0.000223095 -0.000296234 -0.000277908 -0.000352585 -0.000296234 -0.000355188 -0.000352585 -0.000415018 -0.000277908 -0.000352585 -0.000322586 -0.000398867 -0.000352585 -0.000415018 -0.000398867 -0.000464138 -0.000355188 -0.000400376 -0.000415018 -0.000465216 -0.000400376 -0.000434268 -0.000465216 -0.000504366 -0.000415018 -0.000465216 -0.000464138 -0.000518272 -0.000465216 -0.000504366 -0.000518272 -0.000561989 -0.000243791 -0.00026173 -0.000348759 -0.000369731 -0.00026173 -0.000278464 -0.000369731 -0.00038671 -0.000348759 -0.000369731 -0.000434268 -0.000459711 -0.000369731 -0.00038671 -0.000459711 -0.000479309 -0.000278464 -0.00029485 -0.00038671 -0.000401462 -0.00029485 -0.000310842 -0.000401462 -0.000414764 -0.00038671 -0.000401462 -0.000479309 -0.000494994 -0.000401462 -0.000414764 -0.000494994 -0.000507974 -0.000434268 -0.000459711 -0.000504366 -0.000534524 -0.000459711 -0.000479309 -0.000534524 -0.000557747 -0.000504366 -0.000534524 -0.000561989 -0.000596605 -0.000534524 -0.000557747 -0.000596605 -0.000623697 -0.000479309 -0.000494994 -0.000557747 -0.000575799 -0.000494994 -0.000507974 -0.000575799 -0.000590012 -0.000557747 -0.000575799 -0.000623697 -0.000644767 -0.000575799 -0.000590012 -0.000644767 -0.00066109 0.000152971 0.000103534 4.03926e-05 1.7467e-06 0.000103534 6.25587e-05 1.7467e-06 -3.12828e-05 4.03926e-05 1.7467e-06 -7.89683e-05 -0.000107683 1.7467e-06 -3.12828e-05 -0.000107683 -0.000133029 6.25587e-05 2.99355e-05 -3.12828e-05 -5.84355e-05 2.99355e-05 5.40509e-06 -5.84355e-05 -7.96739e-05 -3.12828e-05 -5.84355e-05 -0.000133029 -0.000154455 -5.84355e-05 -7.96739e-05 -0.000154455 -0.000171631 -7.89683e-05 -0.000107683 -0.000197818 -0.000218539 -0.000107683 -0.000133029 -0.000218539 -0.000237315 -0.000197818 -0.000218539 -0.000310842 -0.00032602 -0.000218539 -0.000237315 -0.00032602 -0.000339855 -0.000133029 -0.000154455 -0.000237315 -0.000253505 -0.000154455 -0.000171631 -0.000253505 -0.000266632 -0.000237315 -0.000253505 -0.000339855 -0.000351829 -0.000253505 -0.000266632 -0.000351829 -0.000361483 5.40509e-06 -1.15402e-05 -7.96739e-05 -9.51779e-05 -1.15402e-05 -2.17936e-05 -9.51779e-05 -0.000105339 -7.96739e-05 -9.51779e-05 -0.000171631 -0.000184407 -9.51779e-05 -0.000105339 -0.000184407 -0.000192783 -2.17936e-05 -2.67688e-05 -0.000105339 -0.000110735 -2.67688e-05 -2.82735e-05 -0.000110735 -0.000112396 -0.000105339 -0.000110735 -0.000192783 -0.000196992 -0.000110735 -0.000112396 -0.000196992 -0.000197853 -0.000171631 -0.000184407 -0.000266632 -0.000276359 -0.000184407 -0.000192783 -0.000276359 -0.00028249 -0.000266632 -0.000276359 -0.000361483 -0.000368437 -0.000276359 -0.00028249 -0.000368437 -0.000372418 -0.000192783 -0.000196992 -0.00028249 -0.00028507 -0.000196992 -0.000197853 -0.00028507 -0.000284587 -0.00028249 -0.00028507 -0.000372418 -0.000373316 -0.00028507 -0.000284587 -0.000373316 -0.000371238 -0.000310842 -0.00032602 -0.000414764 -0.000426808 -0.00032602 -0.000339855 -0.000426808 -0.00043747 -0.000414764 -0.000426808 -0.000507974 -0.000518892 -0.000426808 -0.00043747 -0.000518892 -0.000527994 -0.000339855 -0.000351829 -0.00043747 -0.000446482 -0.000351829 -0.000361483 -0.000446482 -0.00045352 -0.00043747 -0.000446482 -0.000527994 -0.00053528 -0.000446482 -0.00045352 -0.00053528 -0.000540613 -0.000507974 -0.000518892 -0.000590012 -0.000601274 -0.000518892 -0.000527994 -0.000601274 -0.000610097 -0.000590012 -0.000601274 -0.00066109 -0.000673645 -0.000601274 -0.000610097 -0.000673645 -0.000683096 -0.000527994 -0.00053528 -0.000610097 -0.000616714 -0.00053528 -0.000540613 -0.000616714 -0.000621163 -0.000610097 -0.000616714 -0.000683096 -0.000689842 -0.000616714 -0.000621163 -0.000689842 -0.000694062 -0.000361483 -0.000368437 -0.00045352 -0.000458261 -0.000368437 -0.000372418 -0.000458261 -0.000460415 -0.00045352 -0.000458261 -0.000540613 -0.000543776 -0.000458261 -0.000460415 -0.000543776 -0.0005445 -0.000372418 -0.000373316 -0.000460415 -0.000459744 -0.000373316 -0.000371238 -0.000459744 -0.000456025 -0.000460415 -0.000459744 -0.0005445 -0.000542462 -0.000459744 -0.000456025 -0.000542462 -0.0005372 -0.000540613 -0.000543776 -0.000621163 -0.000623343 -0.000543776 -0.0005445 -0.000623343 -0.000623034 -0.000621163 -0.000623343 -0.000694062 -0.000695759 -0.000623343 -0.000623034 -0.000695759 -0.000694767 -0.0005445 -0.000542462 -0.000623034 -0.000619869 -0.000542462 -0.0005372 -0.000619869 -0.000613254 -0.000623034 -0.000619869 -0.000694767 -0.000690722 -0.000619869 -0.000613254 -0.000690722 -0.000682989 -0.000322586 -0.000398867 -0.000358978 -0.000436702 -0.000398867 -0.000464138 -0.000436702 -0.00050433 -0.000358978 -0.000436702 -0.00038849 -0.000467344 -0.000436702 -0.00050433 -0.000467344 -0.000536983 -0.000464138 -0.000518272 -0.00050433 -0.000561734 -0.000518272 -0.000561989 -0.000561734 -0.000609293 -0.00050433 -0.000561734 -0.000536983 -0.000597092 -0.000561734 -0.000609293 -0.000597092 -0.000647867 -0.00038849 -0.000467344 -0.000412119 -0.00049193 -0.000467344 -0.000536983 -0.00049193 -0.000563175 -0.000412119 -0.00049193 -0.00043066 -0.000511235 -0.00049193 -0.000563175 -0.000511235 -0.000583707 -0.000536983 -0.000597092 -0.000563175 -0.000625474 -0.000597092 -0.000647867 -0.000625474 -0.000678879 -0.000563175 -0.000625474 -0.000583707 -0.000647714 -0.000625474 -0.000678879 -0.000647714 -0.000703198 -0.000561989 -0.000596605 -0.000609293 -0.000647893 -0.000596605 -0.000623697 -0.000647893 -0.000678699 -0.000609293 -0.000647893 -0.000647867 -0.0006899 -0.000647893 -0.000678699 -0.0006899 -0.000724056 -0.000623697 -0.000644767 -0.000678699 -0.000702939 -0.000644767 -0.00066109 -0.000702939 -0.000721756 -0.000678699 -0.000702939 -0.000724056 -0.000751319 -0.000702939 -0.000721756 -0.000751319 -0.000772678 -0.000647867 -0.0006899 -0.000678879 -0.000723783 -0.0006899 -0.000724056 -0.000723783 -0.000760827 -0.000678879 -0.000723783 -0.000703198 -0.000750423 -0.000723783 -0.000760827 -0.000750423 -0.000789851 -0.000724056 -0.000751319 -0.000760827 -0.000790793 -0.000751319 -0.000772678 -0.000790793 -0.000814525 -0.000760827 -0.000790793 -0.000789851 -0.000822104 -0.000790793 -0.000814525 -0.000822104 -0.000847899 -0.00043066 -0.000511235 -0.000444661 -0.000525726 -0.000511235 -0.000583707 -0.000525726 -0.000599152 -0.000444661 -0.000525726 -0.000454045 -0.000536012 -0.000525726 -0.000599152 -0.000536012 -0.000609652 -0.000583707 -0.000647714 -0.000599152 -0.000664376 -0.000647714 -0.000703198 -0.000664376 -0.000721458 -0.000599152 -0.000664376 -0.000609652 -0.000675846 -0.000664376 -0.000721458 -0.000675846 -0.000734119 -0.000454045 -0.000536012 -0.00046015 -0.000540774 -0.000536012 -0.000609652 -0.000540774 -0.000615373 -0.00046015 -0.000540774 -0.000456451 -0.000540779 -0.000540774 -0.000615373 -0.000540779 -0.000617062 -0.000609652 -0.000675846 -0.000615373 -0.000682461 -0.000675846 -0.000734119 -0.000682461 -0.000741538 -0.000615373 -0.000682461 -0.000617062 -0.000684591 -0.000682461 -0.000741538 -0.000684591 -0.000743977 -0.000703198 -0.000750423 -0.000721458 -0.000770481 -0.000750423 -0.000789851 -0.000770481 -0.000811777 -0.000721458 -0.000770481 -0.000734119 -0.000784449 -0.000770481 -0.000811777 -0.000784449 -0.000827094 -0.000789851 -0.000822104 -0.000811777 -0.000845849 -0.000822104 -0.000847899 -0.000845849 -0.000873314 -0.000811777 -0.000845849 -0.000827094 -0.000862485 -0.000845849 -0.000873314 -0.000862485 -0.000891173 -0.000734119 -0.000784449 -0.000741538 -0.00079268 -0.000784449 -0.000827094 -0.00079268 -0.000836145 -0.000741538 -0.00079268 -0.000743977 -0.000795397 -0.00079268 -0.000836145 -0.000795397 -0.000839138 -0.000827094 -0.000862485 -0.000836145 -0.000872336 -0.000862485 -0.000891173 -0.000872336 -0.000901771 -0.000836145 -0.000872336 -0.000839138 -0.000875598 -0.000872336 -0.000901771 -0.000875598 -0.000905284 -0.00066109 -0.000673645 -0.000721756 -0.000736119 -0.000673645 -0.000683096 -0.000736119 -0.000746756 -0.000721756 -0.000736119 -0.000772678 -0.000789038 -0.000736119 -0.000746756 -0.000789038 -0.000801132 -0.000683096 -0.000689842 -0.000746756 -0.000754165 -0.000689842 -0.000694062 -0.000754165 -0.000758622 -0.000746756 -0.000754165 -0.000801132 -0.000809502 -0.000754165 -0.000758622 -0.000809502 -0.000814486 -0.000772678 -0.000789038 -0.000814525 -0.000832839 -0.000789038 -0.000801132 -0.000832839 -0.000846441 -0.000814525 -0.000832839 -0.000847899 -0.000867968 -0.000832839 -0.000846441 -0.000867968 -0.000882972 -0.000801132 -0.000809502 -0.000846441 -0.000855883 -0.000809502 -0.000814486 -0.000855883 -0.000861531 -0.000846441 -0.000855883 -0.000882972 -0.000893451 -0.000855883 -0.000861531 -0.000893451 -0.000899785 -0.000694062 -0.000695759 -0.000758622 -0.000760214 -0.000695759 -0.000694767 -0.000760214 -0.00075883 -0.000758622 -0.000760214 -0.000814486 -0.00081623 -0.000760214 -0.00075883 -0.00081623 -0.000814672 -0.000694767 -0.000690722 -0.00075883 -0.000754136 -0.000690722 -0.000682989 -0.000754136 -0.000745527 -0.00075883 -0.000754136 -0.000814672 -0.000809529 -0.000754136 -0.000745527 -0.000809529 -0.000800271 -0.000814486 -0.00081623 -0.000861531 -0.000863575 -0.00081623 -0.000814672 -0.000863575 -0.000861994 -0.000861531 -0.000863575 -0.000899785 -0.000902186 -0.000863575 -0.000861994 -0.000902186 -0.000900673 -0.000814672 -0.000809529 -0.000861994 -0.000856565 -0.000809529 -0.000800271 -0.000856565 -0.00084685 -0.000861994 -0.000856565 -0.000900673 -0.000895077 -0.000856565 -0.00084685 -0.000895077 -0.000885058 -0.000847899 -0.000867968 -0.000873314 -0.000894832 -0.000867968 -0.000882972 -0.000894832 -0.00091102 -0.000873314 -0.000894832 -0.000891173 -0.000913767 -0.000894832 -0.00091102 -0.000913767 -0.000930848 -0.000882972 -0.000893451 -0.00091102 -0.0009224 -0.000893451 -0.000899785 -0.0009224 -0.00092935 -0.00091102 -0.0009224 -0.000930848 -0.000942918 -0.0009224 -0.00092935 -0.000942918 -0.00095035 -0.000891173 -0.000913767 -0.000901771 -0.000925026 -0.000913767 -0.000930848 -0.000925026 -0.00094266 -0.000901771 -0.000925026 -0.000905284 -0.000928762 -0.000925026 -0.00094266 -0.000928762 -0.000946583 -0.000930848 -0.000942918 -0.00094266 -0.000955161 -0.000942918 -0.00095035 -0.000955161 -0.000962899 -0.00094266 -0.000955161 -0.000946583 -0.000959231 -0.000955161 -0.000962899 -0.000959231 -0.000967073 -0.000899785 -0.000902186 -0.00092935 -0.000932096 -0.000902186 -0.000900673 -0.000932096 -0.000930689 -0.00092935 -0.000932096 -0.00095035 -0.000953378 -0.000932096 -0.000930689 -0.000953378 -0.000952076 -0.000900673 -0.000895077 -0.000930689 -0.000925007 -0.000895077 -0.000885058 -0.000925007 -0.000914797 -0.000930689 -0.000925007 -0.000952076 -0.000946358 -0.000925007 -0.000914797 -0.000946358 -0.000936037 -0.00095035 -0.000953378 -0.000962899 -0.00096611 -0.000953378 -0.000952076 -0.00096611 -0.000964882 -0.000962899 -0.00096611 -0.000967073 -0.000970348 -0.00096611 -0.000964882 -0.000970348 -0.000969147 -0.000952076 -0.000946358 -0.000964882 -0.000959152 -0.000946358 -0.000936037 -0.000959152 -0.000948776 -0.000964882 -0.000959152 -0.000969147 -0.000963414 -0.000959152 -0.000948776 -0.000963414 -0.00095302 -0.000191427 -0.000251993 -0.000187272 -0.000248106 -0.000251993 -0.000308644 -0.000248106 -0.000305027 -0.000187272 -0.000248106 -0.000174876 -0.000236443 -0.000248106 -0.000305027 -0.000236443 -0.000294169 -0.000174876 -0.000236443 -0.000154211 -0.00021699 -0.000236443 -0.000294169 -0.00021699 -0.000276043 -0.000154211 -0.00021699 -0.000125187 -0.000189696 -0.00021699 -0.000276043 -0.000189696 -0.00025059 -0.000308644 -0.000360846 -0.000305027 -0.000357501 -0.000360846 -0.000408095 -0.000357501 -0.000405004 -0.000305027 -0.000357501 -0.000294169 -0.000347455 -0.000357501 -0.000405004 -0.000347455 -0.000395722 -0.000408095 -0.000449933 -0.000405004 -0.000447066 -0.000449933 -0.000485977 -0.000447066 -0.00048329 -0.000405004 -0.000447066 -0.000395722 -0.000438453 -0.000447066 -0.00048329 -0.000438453 -0.000475218 -0.000294169 -0.000347455 -0.000276043 -0.000330673 -0.000347455 -0.000395722 -0.000330673 -0.000380211 -0.000276043 -0.000330673 -0.00025059 -0.000307082 -0.000330673 -0.000380211 -0.000307082 -0.000358395 -0.000395722 -0.000438453 -0.000380211 -0.000424059 -0.000438453 -0.000475218 -0.000424059 -0.000461723 -0.000380211 -0.000424059 -0.000358395 -0.000403807 -0.000424059 -0.000461723 -0.000403807 -0.000442729 -0.000125187 -0.000189696 -8.78412e-05 -0.000154467 -0.000189696 -0.00025059 -0.000154467 -0.000217672 -8.78412e-05 -0.000154467 -4.21624e-05 -0.000111093 -0.000154467 -0.000217672 -0.000111093 -0.000177125 -0.00025059 -0.000307082 -0.000217672 -0.000276547 -0.000307082 -0.000358395 -0.000276547 -0.00033013 -0.000217672 -0.000276547 -0.000177125 -0.000238816 -0.000276547 -0.00033013 -0.000238816 -0.000295215 -0.000358395 -0.000403807 -0.00033013 -0.000377569 -0.000403807 -0.000442729 -0.000377569 -0.000418105 -0.00033013 -0.000377569 -0.000295215 -0.000345136 -0.000377569 -0.000418105 -0.000345136 -0.00038764 -0.000177125 -0.000238816 -0.000128847 -0.000193679 -0.000238816 -0.000295215 -0.000193679 -0.000253319 -0.000128847 -0.000193679 -7.19717e-05 -0.000140376 -0.000193679 -0.000253319 -0.000140376 -0.000203819 -0.000295215 -0.000345136 -0.000253319 -0.000306172 -0.000345136 -0.00038764 -0.000306172 -0.000350982 -0.000253319 -0.000306172 -0.000203819 -0.000260072 -0.000306172 -0.000350982 -0.000260072 -0.000307622 -0.000203819 -0.000260072 -0.000146126 -0.000206176 -0.000260072 -0.000307622 -0.000206176 -0.000256812 -0.000146126 -0.000206176 -7.84195e-05 -0.000143063 -0.000206176 -0.000256812 -0.000143063 -0.000197213 -0.000485977 -0.000516005 -0.00048329 -0.000513446 -0.000516005 -0.000540015 -0.000513446 -0.000537526 -0.00048329 -0.000513446 -0.000475218 -0.000505756 -0.000513446 -0.000537526 -0.000505756 -0.000530043 -0.000540015 -0.000558203 -0.000537526 -0.000555727 -0.000558203 -0.000570951 -0.000555727 -0.000568436 -0.000537526 -0.000555727 -0.000530043 -0.000548278 -0.000555727 -0.000568436 -0.000548278 -0.000560869 -0.000475218 -0.000505756 -0.000461723 -0.000492893 -0.000505756 -0.000530043 -0.000492893 -0.000517515 -0.000461723 -0.000492893 -0.000442729 -0.000474772 -0.000492893 -0.000517515 -0.000474772 -0.000499844 -0.000530043 -0.000548278 -0.000517515 -0.000535796 -0.000548278 -0.000560869 -0.000535796 -0.000548178 -0.000517515 -0.000535796 -0.000499844 -0.000518163 -0.000535796 -0.000548178 -0.000518163 -0.000530227 -0.000570951 -0.000578806 -0.000568436 -0.000576212 -0.000578806 -0.000582446 -0.000576212 -0.000579745 -0.000568436 -0.000576212 -0.000560869 -0.000568406 -0.000576212 -0.000579745 -0.000568406 -0.000571617 -0.000582446 -0.000582628 -0.000579745 -0.000579805 -0.000582628 -0.000580118 -0.000579805 -0.000577172 -0.000579745 -0.000579805 -0.000571617 -0.000571315 -0.000579805 -0.000577172 -0.000571315 -0.000568314 -0.000560869 -0.000568406 -0.000548178 -0.000555308 -0.000568406 -0.000571617 -0.000555308 -0.000557983 -0.000548178 -0.000555308 -0.000530227 -0.000536771 -0.000555308 -0.000557983 -0.000536771 -0.000538696 -0.000571617 -0.000571315 -0.000557983 -0.000557084 -0.000571315 -0.000568314 -0.000557084 -0.000553489 -0.000557983 -0.000557084 -0.000538696 -0.00053698 -0.000557084 -0.000553489 -0.00053698 -0.000532595 -0.000442729 -0.000474772 -0.000418105 -0.000451252 -0.000474772 -0.000499844 -0.000451252 -0.000476865 -0.000418105 -0.000451252 -0.00038764 -0.0004221 -0.000451252 -0.000476865 -0.0004221 -0.000448315 -0.000499844 -0.000518163 -0.000476865 -0.000495185 -0.000518163 -0.000530227 -0.000495185 -0.000506793 -0.000476865 -0.000495185 -0.000448315 -0.000466552 -0.000495185 -0.000506793 -0.000466552 -0.000477528 -0.00038764 -0.0004221 -0.000350982 -0.000386954 -0.0004221 -0.000448315 -0.000386954 -0.000413777 -0.000350982 -0.000386954 -0.000307622 -0.000345256 -0.000386954 -0.000413777 -0.000345256 -0.000372611 -0.000448315 -0.000466552 -0.000413777 -0.000431788 -0.000466552 -0.000477528 -0.000431788 -0.0004419 -0.000413777 -0.000431788 -0.000372611 -0.000390161 -0.000431788 -0.0004419 -0.000390161 -0.000399117 -0.000530227 -0.000536771 -0.000506793 -0.000512555 -0.000536771 -0.000538696 -0.000512555 -0.00051352 -0.000506793 -0.000512555 -0.000477528 -0.000482293 -0.000512555 -0.00051352 -0.000482293 -0.000482102 -0.000538696 -0.00053698 -0.00051352 -0.000510798 -0.00053698 -0.000532595 -0.000510798 -0.000505477 -0.00051352 -0.000510798 -0.000482102 -0.000478237 -0.000510798 -0.000505477 -0.000478237 -0.000471917 -0.000477528 -0.000482293 -0.0004419 -0.000445441 -0.000482293 -0.000482102 -0.000445441 -0.000443935 -0.0004419 -0.000445441 -0.000399117 -0.000401205 -0.000445441 -0.000443935 -0.000401205 -0.000398317 -0.000482102 -0.000478237 -0.000443935 -0.000438882 -0.000478237 -0.000471917 -0.000438882 -0.000431629 -0.000443935 -0.000438882 -0.000398317 -0.000392189 -0.000438882 -0.000431629 -0.000392189 -0.000384272 -0.000580118 -0.000575682 -0.000577172 -0.00057262 -0.000575682 -0.000569987 -0.00057262 -0.000566826 -0.000577172 -0.00057262 -0.000568314 -0.000563423 -0.00057262 -0.000566826 -0.000563423 -0.000557339 -0.000569987 -0.00056356 -0.000566826 -0.000560321 -0.00056356 -0.000556757 -0.000560321 -0.000553465 -0.000566826 -0.000560321 -0.000557339 -0.000550611 -0.000560321 -0.000553465 -0.000550611 -0.000543604 -0.000568314 -0.000563423 -0.000553489 -0.000548058 -0.000563423 -0.000557339 -0.000548058 -0.00054152 -0.000553489 -0.000548058 -0.000532595 -0.000526463 -0.000548058 -0.00054152 -0.000526463 -0.000519355 -0.000557339 -0.000550611 -0.00054152 -0.000534447 -0.000550611 -0.000543604 -0.000534447 -0.000527216 -0.00054152 -0.000534447 -0.000519355 -0.000511863 -0.000534447 -0.000527216 -0.000511863 -0.000504377 -0.000556757 -0.00054973 -0.000553465 -0.000546412 -0.00054973 -0.000542417 -0.000546412 -0.000539099 -0.000553465 -0.000546412 -0.000543604 -0.000536479 -0.000546412 -0.000539099 -0.000536479 -0.00052917 -0.000