# vtk DataFile Version 3.0
#This file was generated by the deal.II library on 2022/11/17 at 20:31:25
ASCII
DATASET UNSTRUCTURED_GRID

POINTS 4096 double
0 0.5 0
0.03125 0.5 0
0 0.53125 0
0.03125 0.53125 0
0.03125 0.5 0
0.0625 0.5 0
0.03125 0.53125 0
0.0625 0.53125 0
0 0.53125 0
0.03125 0.53125 0
0 0.5625 0
0.03125 0.5625 0
0.03125 0.53125 0
0.0625 0.53125 0
0.03125 0.5625 0
0.0625 0.5625 0
0.0625 0.5 0
0.09375 0.5 0
0.0625 0.53125 0
0.09375 0.53125 0
0.09375 0.5 0
0.125 0.5 0
0.09375 0.53125 0
0.125 0.53125 0
0.0625 0.53125 0
0.09375 0.53125 0
0.0625 0.5625 0
0.09375 0.5625 0
0.09375 0.53125 0
0.125 0.53125 0
0.09375 0.5625 0
0.125 0.5625 0
0 0.5625 0
0.03125 0.5625 0
0 0.59375 0
0.03125 0.59375 0
0.03125 0.5625 0
0.0625 0.5625 0
0.03125 0.59375 0
0.0625 0.59375 0
0 0.59375 0
0.03125 0.59375 0
0 0.625 0
0.03125 0.625 0
0.03125 0.59375 0
0.0625 0.59375 0
0.03125 0.625 0
0.0625 0.625 0
0.0625 0.5625 0
0.09375 0.5625 0
0.0625 0.59375 0
0.09375 0.59375 0
0.09375 0.5625 0
0.125 0.5625 0
0.09375 0.59375 0
0.125 0.59375 0
0.0625 0.59375 0
0.09375 0.59375 0
0.0625 0.625 0
0.09375 0.625 0
0.09375 0.59375 0
0.125 0.59375 0
0.09375 0.625 0
0.125 0.625 0
0.125 0.5 0
0.15625 0.5 0
0.125 0.53125 0
0.15625 0.53125 0
0.15625 0.5 0
0.1875 0.5 0
0.15625 0.53125 0
0.1875 0.53125 0
0.125 0.53125 0
0.15625 0.53125 0
0.125 0.5625 0
0.15625 0.5625 0
0.15625 0.53125 0
0.1875 0.53125 0
0.15625 0.5625 0
0.1875 0.5625 0
0.1875 0.5 0
0.21875 0.5 0
0.1875 0.53125 0
0.21875 0.53125 0
0.21875 0.5 0
0.25 0.5 0
0.21875 0.53125 0
0.25 0.53125 0
0.1875 0.53125 0
0.21875 0.53125 0
0.1875 0.5625 0
0.21875 0.5625 0
0.21875 0.53125 0
0.25 0.53125 0
0.21875 0.5625 0
0.25 0.5625 0
0.125 0.5625 0
0.15625 0.5625 0
0.125 0.59375 0
0.15625 0.59375 0
0.15625 0.5625 0
0.1875 0.5625 0
0.15625 0.59375 0
0.1875 0.59375 0
0.125 0.59375 0
0.15625 0.59375 0
0.125 0.625 0
0.15625 0.625 0
0.15625 0.59375 0
0.1875 0.59375 0
0.15625 0.625 0
0.1875 0.625 0
0.1875 0.5625 0
0.21875 0.5625 0
0.1875 0.59375 0
0.21875 0.59375 0
0.21875 0.5625 0
0.25 0.5625 0
0.21875 0.59375 0
0.25 0.59375 0
0.1875 0.59375 0
0.21875 0.59375 0
0.1875 0.625 0
0.21875 0.625 0
0.21875 0.59375 0
0.25 0.59375 0
0.21875 0.625 0
0.25 0.625 0
0 0.625 0
0.03125 0.625 0
0 0.65625 0
0.03125 0.65625 0
0.03125 0.625 0
0.0625 0.625 0
0.03125 0.65625 0
0.0625 0.65625 0
0 0.65625 0
0.03125 0.65625 0
0 0.6875 0
0.03125 0.6875 0
0.03125 0.65625 0
0.0625 0.65625 0
0.03125 0.6875 0
0.0625 0.6875 0
0.0625 0.625 0
0.09375 0.625 0
0.0625 0.65625 0
0.09375 0.65625 0
0.09375 0.625 0
0.125 0.625 0
0.09375 0.65625 0
0.125 0.65625 0
0.0625 0.65625 0
0.09375 0.65625 0
0.0625 0.6875 0
0.09375 0.6875 0
0.09375 0.65625 0
0.125 0.65625 0
0.09375 0.6875 0
0.125 0.6875 0
0 0.6875 0
0.03125 0.6875 0
0 0.71875 0
0.03125 0.71875 0
0.03125 0.6875 0
0.0625 0.6875 0
0.03125 0.71875 0
0.0625 0.71875 0
0 0.71875 0
0.03125 0.71875 0
0 0.75 0
0.03125 0.75 0
0.03125 0.71875 0
0.0625 0.71875 0
0.03125 0.75 0
0.0625 0.75 0
0.0625 0.6875 0
0.09375 0.6875 0
0.0625 0.71875 0
0.09375 0.71875 0
0.09375 0.6875 0
0.125 0.6875 0
0.09375 0.71875 0
0.125 0.71875 0
0.0625 0.71875 0
0.09375 0.71875 0
0.0625 0.75 0
0.09375 0.75 0
0.09375 0.71875 0
0.125 0.71875 0
0.09375 0.75 0
0.125 0.75 0
0.125 0.625 0
0.15625 0.625 0
0.125 0.65625 0
0.15625 0.65625 0
0.15625 0.625 0
0.1875 0.625 0
0.15625 0.65625 0
0.1875 0.65625 0
0.125 0.65625 0
0.15625 0.65625 0
0.125 0.6875 0
0.15625 0.6875 0
0.15625 0.65625 0
0.1875 0.65625 0
0.15625 0.6875 0
0.1875 0.6875 0
0.1875 0.625 0
0.21875 0.625 0
0.1875 0.65625 0
0.21875 0.65625 0
0.21875 0.625 0
0.25 0.625 0
0.21875 0.65625 0
0.25 0.65625 0
0.1875 0.65625 0
0.21875 0.65625 0
0.1875 0.6875 0
0.21875 0.6875 0
0.21875 0.65625 0
0.25 0.65625 0
0.21875 0.6875 0
0.25 0.6875 0
0.125 0.6875 0
0.15625 0.6875 0
0.125 0.71875 0
0.15625 0.71875 0
0.15625 0.6875 0
0.1875 0.6875 0
0.15625 0.71875 0
0.1875 0.71875 0
0.125 0.71875 0
0.15625 0.71875 0
0.125 0.75 0
0.15625 0.75 0
0.15625 0.71875 0
0.1875 0.71875 0
0.15625 0.75 0
0.1875 0.75 0
0.1875 0.6875 0
0.21875 0.6875 0
0.1875 0.71875 0
0.21875 0.71875 0
0.21875 0.6875 0
0.25 0.6875 0
0.21875 0.71875 0
0.25 0.71875 0
0.1875 0.71875 0
0.21875 0.71875 0
0.1875 0.75 0
0.21875 0.75 0
0.21875 0.71875 0
0.25 0.71875 0
0.21875 0.75 0
0.25 0.75 0
0.25 0.5 0
0.28125 0.5 0
0.25 0.53125 0
0.28125 0.53125 0
0.28125 0.5 0
0.3125 0.5 0
0.28125 0.53125 0
0.3125 0.53125 0
0.25 0.53125 0
0.28125 0.53125 0
0.25 0.5625 0
0.28125 0.5625 0
0.28125 0.53125 0
0.3125 0.53125 0
0.28125 0.5625 0
0.3125 0.5625 0
0.3125 0.5 0
0.34375 0.5 0
0.3125 0.53125 0
0.34375 0.53125 0
0.34375 0.5 0
0.375 0.5 0
0.34375 0.53125 0
0.375 0.53125 0
0.3125 0.53125 0
0.34375 0.53125 0
0.3125 0.5625 0
0.34375 0.5625 0
0.34375 0.53125 0
0.375 0.53125 0
0.34375 0.5625 0
0.375 0.5625 0
0.25 0.5625 0
0.28125 0.5625 0
0.25 0.59375 0
0.28125 0.59375 0
0.28125 0.5625 0
0.3125 0.5625 0
0.28125 0.59375 0
0.3125 0.59375 0
0.25 0.59375 0
0.28125 0.59375 0
0.25 0.625 0
0.28125 0.625 0
0.28125 0.59375 0
0.3125 0.59375 0
0.28125 0.625 0
0.3125 0.625 0
0.3125 0.5625 0
0.34375 0.5625 0
0.3125 0.59375 0
0.34375 0.59375 0
0.34375 0.5625 0
0.375 0.5625 0
0.34375 0.59375 0
0.375 0.59375 0
0.3125 0.59375 0
0.34375 0.59375 0
0.3125 0.625 0
0.34375 0.625 0
0.34375 0.59375 0
0.375 0.59375 0
0.34375 0.625 0
0.375 0.625 0
0.375 0.5 0
0.40625 0.5 0
0.375 0.53125 0
0.40625 0.53125 0
0.40625 0.5 0
0.4375 0.5 0
0.40625 0.53125 0
0.4375 0.53125 0
0.375 0.53125 0
0.40625 0.53125 0
0.375 0.5625 0
0.40625 0.5625 0
0.40625 0.53125 0
0.4375 0.53125 0
0.40625 0.5625 0
0.4375 0.5625 0
0.4375 0.5 0
0.46875 0.5 0
0.4375 0.53125 0
0.46875 0.53125 0
0.46875 0.5 0
0.5 0.5 0
0.46875 0.53125 0
0.5 0.53125 0
0.4375 0.53125 0
0.46875 0.53125 0
0.4375 0.5625 0
0.46875 0.5625 0
0.46875 0.53125 0
0.5 0.53125 0
0.46875 0.5625 0
0.5 0.5625 0
0.375 0.5625 0
0.40625 0.5625 0
0.375 0.59375 0
0.40625 0.59375 0
0.40625 0.5625 0
0.4375 0.5625 0
0.40625 0.59375 0
0.4375 0.59375 0
0.375 0.59375 0
0.40625 0.59375 0
0.375 0.625 0
0.40625 0.625 0
0.40625 0.59375 0
0.4375 0.59375 0
0.40625 0.625 0
0.4375 0.625 0
0.4375 0.5625 0
0.46875 0.5625 0
0.4375 0.59375 0
0.46875 0.59375 0
0.46875 0.5625 0
0.5 0.5625 0
0.46875 0.59375 0
0.5 0.59375 0
0.4375 0.59375 0
0.46875 0.59375 0
0.4375 0.625 0
0.46875 0.625 0
0.46875 0.59375 0
0.5 0.59375 0
0.46875 0.625 0
0.5 0.625 0
0.25 0.625 0
0.28125 0.625 0
0.25 0.65625 0
0.28125 0.65625 0
0.28125 0.625 0
0.3125 0.625 0
0.28125 0.65625 0
0.3125 0.65625 0
0.25 0.65625 0
0.28125 0.65625 0
0.25 0.6875 0
0.28125 0.6875 0
0.28125 0.65625 0
0.3125 0.65625 0
0.28125 0.6875 0
0.3125 0.6875 0
0.3125 0.625 0
0.34375 0.625 0
0.3125 0.65625 0
0.34375 0.65625 0
0.34375 0.625 0
0.375 0.625 0
0.34375 0.65625 0
0.375 0.65625 0
0.3125 0.65625 0
0.34375 0.65625 0
0.3125 0.6875 0
0.34375 0.6875 0
0.34375 0.65625 0
0.375 0.65625 0
0.34375 0.6875 0
0.375 0.6875 0
0.25 0.6875 0
0.28125 0.6875 0
0.25 0.71875 0
0.28125 0.71875 0
0.28125 0.6875 0
0.3125 0.6875 0
0.28125 0.71875 0
0.3125 0.71875 0
0.25 0.71875 0
0.28125 0.71875 0
0.25 0.75 0
0.28125 0.75 0
0.28125 0.71875 0
0.3125 0.71875 0
0.28125 0.75 0
0.3125 0.75 0
0.3125 0.6875 0
0.34375 0.6875 0
0.3125 0.71875 0
0.34375 0.71875 0
0.34375 0.6875 0
0.375 0.6875 0
0.34375 0.71875 0
0.375 0.71875 0
0.3125 0.71875 0
0.34375 0.71875 0
0.3125 0.75 0
0.34375 0.75 0
0.34375 0.71875 0
0.375 0.71875 0
0.34375 0.75 0
0.375 0.75 0
0.375 0.625 0
0.40625 0.625 0
0.375 0.65625 0
0.40625 0.65625 0
0.40625 0.625 0
0.4375 0.625 0
0.40625 0.65625 0
0.4375 0.65625 0
0.375 0.65625 0
0.40625 0.65625 0
0.375 0.6875 0
0.40625 0.6875 0
0.40625 0.65625 0
0.4375 0.65625 0
0.40625 0.6875 0
0.4375 0.6875 0
0.4375 0.625 0
0.46875 0.625 0
0.4375 0.65625 0
0.46875 0.65625 0
0.46875 0.625 0
0.5 0.625 0
0.46875 0.65625 0
0.5 0.65625 0
0.4375 0.65625 0
0.46875 0.65625 0
0.4375 0.6875 0
0.46875 0.6875 0
0.46875 0.65625 0
0.5 0.65625 0
0.46875 0.6875 0
0.5 0.6875 0
0.375 0.6875 0
0.40625 0.6875 0
0.375 0.71875 0
0.40625 0.71875 0
0.40625 0.6875 0
0.4375 0.6875 0
0.40625 0.71875 0
0.4375 0.71875 0
0.375 0.71875 0
0.40625 0.71875 0
0.375 0.75 0
0.40625 0.75 0
0.40625 0.71875 0
0.4375 0.71875 0
0.40625 0.75 0
0.4375 0.75 0
0.4375 0.6875 0
0.46875 0.6875 0
0.4375 0.71875 0
0.46875 0.71875 0
0.46875 0.6875 0
0.5 0.6875 0
0.46875 0.71875 0
0.5 0.71875 0
0.4375 0.71875 0
0.46875 0.71875 0
0.4375 0.75 0
0.46875 0.75 0
0.46875 0.71875 0
0.5 0.71875 0
0.46875 0.75 0
0.5 0.75 0
0 0.75 0
0.03125 0.75 0
0 0.78125 0
0.03125 0.78125 0
0.03125 0.75 0
0.0625 0.75 0
0.03125 0.78125 0
0.0625 0.78125 0
0 0.78125 0
0.03125 0.78125 0
0 0.8125 0
0.03125 0.8125 0
0.03125 0.78125 0
0.0625 0.78125 0
0.03125 0.8125 0
0.0625 0.8125 0
0.0625 0.75 0
0.09375 0.75 0
0.0625 0.78125 0
0.09375 0.78125 0
0.09375 0.75 0
0.125 0.75 0
0.09375 0.78125 0
0.125 0.78125 0
0.0625 0.78125 0
0.09375 0.78125 0
0.0625 0.8125 0
0.09375 0.8125 0
0.09375 0.78125 0
0.125 0.78125 0
0.09375 0.8125 0
0.125 0.8125 0
0 0.8125 0
0.03125 0.8125 0
0 0.84375 0
0.03125 0.84375 0
0.03125 0.8125 0
0.0625 0.8125 0
0.03125 0.84375 0
0.0625 0.84375 0
0 0.84375 0
0.03125 0.84375 0
0 0.875 0
0.03125 0.875 0
0.03125 0.84375 0
0.0625 0.84375 0
0.03125 0.875 0
0.0625 0.875 0
0.0625 0.8125 0
0.09375 0.8125 0
0.0625 0.84375 0
0.09375 0.84375 0
0.09375 0.8125 0
0.125 0.8125 0
0.09375 0.84375 0
0.125 0.84375 0
0.0625 0.84375 0
0.09375 0.84375 0
0.0625 0.875 0
0.09375 0.875 0
0.09375 0.84375 0
0.125 0.84375 0
0.09375 0.875 0
0.125 0.875 0
0.125 0.75 0
0.15625 0.75 0
0.125 0.78125 0
0.15625 0.78125 0
0.15625 0.75 0
0.1875 0.75 0
0.15625 0.78125 0
0.1875 0.78125 0
0.125 0.78125 0
0.15625 0.78125 0
0.125 0.8125 0
0.15625 0.8125 0
0.15625 0.78125 0
0.1875 0.78125 0
0.15625 0.8125 0
0.1875 0.8125 0
0.1875 0.75 0
0.21875 0.75 0
0.1875 0.78125 0
0.21875 0.78125 0
0.21875 0.75 0
0.25 0.75 0
0.21875 0.78125 0
0.25 0.78125 0
0.1875 0.78125 0
0.21875 0.78125 0
0.1875 0.8125 0
0.21875 0.8125 0
0.21875 0.78125 0
0.25 0.78125 0
0.21875 0.8125 0
0.25 0.8125 0
0.125 0.8125 0
0.15625 0.8125 0
0.125 0.84375 0
0.15625 0.84375 0
0.15625 0.8125 0
[...]
POINT_DATA 4096
SCALARS x_dis double 1
LOOKUP_TABLE default
1.98763e-07 1.2593e-07 3.28877e-07 2.0888e-07 1.2593e-07 8.89857e-08 2.0888e-07 1.47379e-07 3.28877e-07 2.0888e-07 5.41186e-07 3.4476e-07 2.0888e-07 1.47379e-07 3.4476e-07 2.42955e-07 8.89857e-08 6.82342e-08 1.47379e-07 1.12582e-07 6.82342e-08 5.47488e-08 1.12582e-07 8.98849e-08 1.47379e-07 1.12582e-07 2.42955e-07 1.8489e-07 1.12582e-07 8.98849e-08 1.8489e-07 1.46843e-07 5.41186e-07 3.4476e-07 8.85133e-07 5.65963e-07 3.4476e-07 2.42955e-07 5.65963e-07 3.98511e-07 8.85133e-07 5.65963e-07 1.43784e-06 9.2361e-07 5.65963e-07 3.98511e-07 9.2361e-07 6.50185e-07 2.42955e-07 1.8489e-07 3.98511e-07 3.0215e-07 1.8489e-07 1.46843e-07 3.0215e-07 2.38641e-07 3.98511e-07 3.0215e-07 6.50185e-07 4.91215e-07 3.0215e-07 2.38641e-07 4.91215e-07 3.85661e-07 5.47488e-08 4.46404e-08 8.98849e-08 7.28703e-08 4.46404e-08 3.63021e-08 7.28703e-08 5.88827e-08 8.98849e-08 7.28703e-08 1.46843e-07 1.18292e-07 7.28703e-08 5.88827e-08 1.18292e-07 9.48837e-08 3.63021e-08 2.9116e-08 5.88827e-08 4.69117e-08 2.9116e-08 2.28557e-08 4.69117e-08 3.6599e-08 5.88827e-08 4.69117e-08 9.48837e-08 7.498e-08 4.69117e-08 3.6599e-08 7.498e-08 5.80123e-08 1.46843e-07 1.18292e-07 2.38641e-07 1.90885e-07 1.18292e-07 9.48837e-08 1.90885e-07 1.51818e-07 2.38641e-07 1.90885e-07 3.85661e-07 3.06025e-07 1.90885e-07 1.51818e-07 3.06025e-07 2.41015e-07 9.48837e-08 7.498e-08 1.51818e-07 1.18822e-07 7.498e-08 5.80123e-08 1.18822e-07 9.09999e-08 1.51818e-07 1.18822e-07 2.41015e-07 1.86517e-07 1.18822e-07 9.09999e-08 1.86517e-07 1.41126e-07 1.43784e-06 9.2361e-07 2.3179e-06 1.49754e-06 9.2361e-07 6.50185e-07 1.49754e-06 1.05478e-06 2.3179e-06 1.49754e-06 3.70462e-06 2.41099e-06 1.49754e-06 1.05478e-06 2.41099e-06 1.70079e-06 6.50185e-07 4.91215e-07 1.05478e-06 7.94186e-07 4.91215e-07 3.85661e-07 7.94186e-07 6.19467e-07 1.05478e-06 7.94186e-07 1.70079e-06 1.27639e-06 7.94186e-07 6.19467e-07 1.27639e-06 9.88213e-07 3.70462e-06 2.41099e-06 5.86341e-06 3.85153e-06 2.41099e-06 1.70079e-06 3.85153e-06 2.72444e-06 5.86341e-06 3.85153e-06 9.17663e-06 6.09945e-06 3.85153e-06 2.72444e-06 6.09945e-06 4.33172e-06 1.70079e-06 1.27639e-06 2.72444e-06 2.03766e-06 1.27639e-06 9.88213e-07 2.03766e-06 1.56369e-06 2.72444e-06 2.03766e-06 4.33172e-06 3.22673e-06 2.03766e-06 1.56369e-06 3.22673e-06 2.44897e-06 3.85661e-07 3.06025e-07 6.19467e-07 4.87036e-07 3.06025e-07 2.41015e-07 4.87036e-07 3.79189e-07 6.19467e-07 4.87036e-07 9.88213e-07 7.68519e-07 4.87036e-07 3.79189e-07 7.68519e-07 5.90257e-07 2.41015e-07 1.86517e-07 3.79189e-07 2.89601e-07 1.86517e-07 1.41126e-07 2.89601e-07 2.16044e-07 3.79189e-07 2.89601e-07 5.90257e-07 4.43901e-07 2.89601e-07 2.16044e-07 4.43901e-07 3.25782e-07 9.88213e-07 7.68519e-07 1.56369e-06 1.20013e-06 7.68519e-07 5.90257e-07 1.20013e-06 9.06942e-07 1.56369e-06 1.20013e-06 2.44897e-06 1.84945e-06 1.20013e-06 9.06942e-07 1.84945e-06 1.37097e-06 5.90257e-07 4.43901e-07 9.06942e-07 6.6992e-07 4.43901e-07 3.25782e-07 6.6992e-07 4.82582e-07 9.06942e-07 6.6992e-07 1.37097e-06 9.91951e-07 6.6992e-07 4.82582e-07 9.91951e-07 6.99812e-07 2.28557e-08 1.74166e-08 3.6599e-08 2.7785e-08 1.74166e-08 1.27005e-08 2.7785e-08 2.03135e-08 3.6599e-08 2.7785e-08 5.80123e-08 4.37242e-08 2.7785e-08 2.03135e-08 4.37242e-08 3.1844e-08 1.27005e-08 8.5857e-09 2.03135e-08 1.39584e-08 8.5857e-09 4.96779e-09 1.39584e-08 8.40738e-09 2.03135e-08 1.39584e-08 3.1844e-08 2.19499e-08 1.39584e-08 8.40738e-09 2.19499e-08 1.3363e-08 5.80123e-08 4.37242e-08 9.09999e-08 6.79281e-08 4.37242e-08 3.1844e-08 6.79281e-08 4.91338e-08 9.09999e-08 6.79281e-08 1.41126e-07 1.04105e-07 6.79281e-08 4.91338e-08 1.04105e-07 7.45965e-08 3.1844e-08 2.19499e-08 4.91338e-08 3.39112e-08 2.19499e-08 1.3363e-08 3.39112e-08 2.12291e-08 4.91338e-08 3.39112e-08 7.45965e-08 5.14231e-08 3.39112e-08 2.12291e-08 5.14231e-08 3.31048e-08 4.96779e-09 2.01166e-09 8.40738e-09 3.19791e-09 2.01166e-09 7.93194e-10 3.19791e-09 -2.53253e-09 8.40738e-09 3.19791e-09 1.3363e-08 4.87811e-09 3.19791e-09 -2.53253e-09 4.87811e-09 -6.2085e-09 7.93194e-10 8.85321e-09 -2.53253e-09 -1.48485e-08 8.85321e-09 3.03466e-08 -1.48485e-08 -6.1738e-08 -2.53253e-09 -1.48485e-08 -6.2085e-09 -2.64677e-08 -1.48485e-08 -6.1738e-08 -2.64677e-08 -4.74005e-08 1.3363e-08 4.87811e-09 2.12291e-08 9.58043e-09 4.87811e-09 -6.2085e-09 9.58043e-09 -3.26034e-09 2.12291e-08 9.58043e-09 3.31048e-08 1.79479e-08 9.58043e-09 -3.26034e-09 1.79479e-08 4.59188e-09 -6.2085e-09 -2.64677e-08 -3.26034e-09 -1.73989e-08 -2.64677e-08 -4.74005e-08 -1.73989e-08 -2.98414e-08 -3.26034e-09 -1.73989e-08 4.59188e-09 -7.47644e-09 -1.73989e-08 -2.98414e-08 -7.47644e-09 -1.74152e-08 1.41126e-07 1.04105e-07 2.16044e-07 1.57143e-07 1.04105e-07 7.45965e-08 1.57143e-07 1.11242e-07 2.16044e-07 1.57143e-07 3.25782e-07 2.33137e-07 1.57143e-07 1.11242e-07 2.33137e-07 1.62616e-07 7.45965e-08 5.14231e-08 1.11242e-07 7.62432e-08 5.14231e-08 3.31048e-08 7.62432e-08 4.97958e-08 1.11242e-07 7.62432e-08 1.62616e-07 1.10291e-07 7.62432e-08 4.97958e-08 1.10291e-07 7.21099e-08 3.25782e-07 2.33137e-07 4.82582e-07 3.3907e-07 2.33137e-07 1.62616e-07 3.3907e-07 2.32518e-07 4.82582e-07 3.3907e-07 6.99812e-07 4.81908e-07 3.3907e-07 2.32518e-07 4.81908e-07 3.24377e-07 1.62616e-07 1.10291e-07 2.32518e-07 1.55505e-07 1.10291e-07 7.21099e-08 1.55505e-07 1.00893e-07 2.32518e-07 1.55505e-07 3.24377e-07 2.13455e-07 1.55505e-07 1.00893e-07 2.13455e-07 1.36813e-07 3.31048e-08 1.79479e-08 4.97958e-08 2.96085e-08 1.79479e-08 4.59188e-09 2.96085e-08 1.37385e-08 4.97958e-08 2.96085e-08 7.21099e-08 4.43225e-08 2.96085e-08 1.37385e-08 4.43225e-08 2.37481e-08 4.59188e-09 -7.47644e-09 1.37385e-08 8.55178e-10 -7.47644e-09 -1.74152e-08 8.55178e-10 -9.86817e-09 1.37385e-08 8.55178e-10 2.37481e-08 7.8296e-09 8.55178e-10 -9.86817e-09 7.8296e-09 -5.51427e-09 7.21099e-08 4.43225e-08 1.00893e-07 6.24202e-08 4.43225e-08 2.37481e-08 6.24202e-08 3.4918e-08 1.00893e-07 6.24202e-08 1.36813e-07 8.4224e-08 6.24202e-08 3.4918e-08 8.4224e-08 4.76021e-08 2.37481e-08 7.8296e-09 3.4918e-08 1.4232e-08 7.8296e-09 -5.51427e-09 1.4232e-08 -3.06356e-09 3.4918e-08 1.4232e-08 4.76021e-08 2.06495e-08 1.4232e-08 -3.06356e-09 2.06495e-08 -1.69876e-09 9.17663e-06 6.09945e-06 1.41736e-05 9.56163e-06 6.09945e-06 4.33172e-06 9.56163e-06 6.82388e-06 1.41736e-05 9.56163e-06 2.15398e-05 1.47975e-05 9.56163e-06 6.82388e-06 1.47975e-05 1.06132e-05 4.33172e-06 3.22673e-06 6.82388e-06 5.05497e-06 3.22673e-06 2.44897e-06 5.05497e-06 3.78248e-06 6.82388e-06 5.05497e-06 1.06132e-05 7.79666e-06 5.05497e-06 3.78248e-06 7.79666e-06 5.72851e-06 2.15398e-05 1.47975e-05 3.20495e-05 2.24901e-05 1.47975e-05 1.06132e-05 2.24901e-05 1.61876e-05 3.20495e-05 2.24901e-05 4.62913e-05 3.32426e-05 2.24901e-05 1.61876e-05 3.32426e-05 2.39342e-05 1.06132e-05 7.79666e-06 1.61876e-05 1.17448e-05 7.79666e-06 5.72851e-06 1.17448e-05 8.43547e-06 1.61876e-05 1.17448e-05 2.39342e-05 1.70714e-05 1.17448e-05 8.43547e-06 1.70714e-05 1.1941e-05 2.44897e-06 1.84945e-06 3.78248e-06 2.80054e-06 1.84945e-06 1.37097e-06 2.80054e-06 2.02965e-06 3.78248e-06 2.80054e-06 5.72851e-06 4.14181e-06 2.80054e-06 2.02965e-06 4.14181e-06 2.92541e-06 1.37097e-06 9.91951e-07 2.02965e-06 1.43466e-06 9.91951e-07 6.99812e-07 1.43466e-06 9.89358e-07 2.02965e-06 1.43466e-06 2.92541e-06 2.01575e-06 1.43466e-06 9.89358e-07 2.01575e-06 1.35707e-06 5.72851e-06 4.14181e-06 8.43547e-06 5.93442e-06 4.14181e-06 2.92541e-06 5.93442e-06 4.07544e-06 8.43547e-06 5.93442e-06 1.1941e-05 8.15628e-06 5.93442e-06 4.07544e-06 8.15628e-06 5.44233e-06 2.92541e-06 2.01575e-06 4.07544e-06 2.73425e-06 2.01575e-06 1.35707e-06 2.73425e-06 1.7966e-06 4.07544e-06 2.73425e-06 5.44233e-06 3.5566e-06 2.73425e-06 1.7966e-06 3.5566e-06 2.28334e-06 4.62913e-05 3.32426e-05 6.39678e-05 4.69898e-05 3.32426e-05 2.39342e-05 4.69898e-05 3.37068e-05 6.39678e-05 4.69898e-05 8.2691e-05 6.19635e-05 4.69898e-05 3.37068e-05 6.19635e-05 4.4195e-05 2.39342e-05 1.70714e-05 3.37068e-05 2.35575e-05 1.70714e-05 1.1941e-05 2.35575e-05 1.60263e-05 3.37068e-05 2.35575e-05 4.4195e-05 3.0278e-05 2.35575e-05 1.60263e-05 3.0278e-05 2.00868e-05 8.2691e-05 6.19635e-05 9.74094e-05 7.41305e-05 6.19635e-05 4.4195e-05 7.41305e-05 5.26629e-05 9.74094e-05 7.41305e-05 0.000102978 7.88698e-05 7.41305e-05 5.26629e-05 7.88698e-05 5.59654e-05 4.4195e-05 3.0278e-05 5.26629e-05 3.55558e-05 3.0278e-05 2.00868e-05 3.55558e-05 2.31725e-05 5.26629e-05 3.55558e-05 5.59654e-05 3.75836e-05 3.55558e-05 2.31725e-05 3.75836e-05 2.43366e-05 1.1941e-05 8.15628e-06 1.60263e-05 1.06334e-05 8.15628e-06 5.44233e-06 1.06334e-05 6.90581e-06 1.60263e-05 1.06334e-05 2.00868e-05 1.2999e-05 1.06334e-05 6.90581e-06 1.2999e-05 8.25506e-06 5.44233e-06 3.5566e-06 6.90581e-06 4.40655e-06 3.5566e-06 2.28334e-06 4.40655e-06 2.77152e-06 6.90581e-06 4.40655e-06 8.25506e-06 5.16711e-06 4.40655e-06 2.77152e-06 5.16711e-06 3.19761e-06 2.00868e-05 1.2999e-05 2.31725e-05 1.47427e-05 1.2999e-05 8.25506e-06 1.47427e-05 9.22393e-06 2.31725e-05 1.47427e-05 2.43366e-05 1.53897e-05 1.47427e-05 9.22393e-06 1.53897e-05 9.57845e-06 8.25506e-06 5.16711e-06 9.22393e-06 5.70154e-06 5.16711e-06 3.19761e-06 5.70154e-06 3.49172e-06 9.22393e-06 5.70154e-06 9.57845e-06 5.89487e-06 5.70154e-06 3.49172e-06 5.89487e-06 3.59712e-06 6.99812e-07 4.81908e-07 9.89358e-07 6.66871e-07 4.81908e-07 3.24377e-07 6.66871e-07 4.40197e-07 9.89358e-07 6.66871e-07 1.35707e-06 8.94836e-07 6.66871e-07 4.40197e-07 8.94836e-07 5.79162e-07 3.24377e-07 2.13455e-07 4.40197e-07 2.84734e-07 2.13455e-07 1.36813e-07 2.84734e-07 1.79941e-07 4.40197e-07 2.84734e-07 5.79162e-07 3.68222e-07 2.84734e-07 1.79941e-07 3.68222e-07 2.29352e-07 1.35707e-06 8.94836e-07 1.7966e-06 1.15931e-06 8.94836e-07 5.79162e-07 1.15931e-06 7.36224e-07 1.7966e-06 1.15931e-06 2.28334e-06 1.44398e-06 1.15931e-06 7.36224e-07 1.44398e-06 9.01222e-07 5.79162e-07 3.68222e-07 7.36224e-07 4.60452e-07 3.68222e-07 2.29352e-07 4.60452e-07 2.82848e-07 7.36224e-07 4.60452e-07 9.01222e-07 5.5534e-07 4.60452e-07 2.82848e-07 5.5534e-07 3.36906e-07 1.36813e-07 8.4224e-08 1.79941e-07 1.09714e-07 8.4224e-08 4.76021e-08 1.09714e-07 6.18986e-08 1.79941e-07 1.09714e-07 2.29352e-07 1.38295e-07 1.09714e-07 6.18986e-08 1.38295e-07 7.7543e-08 4.76021e-08 2.06495e-08 6.18986e-08 2.73814e-08 2.06495e-08 -1.69876e-09 2.73814e-08 -9.42112e-10 6.18986e-08 2.73814e-08 7.7543e-08 3.44552e-08 2.73814e-08 -9.42112e-10 3.44552e-08 -5.23161e-10 2.29352e-07 1.38295e-07 2.82848e-07 1.6868e-07 1.38295e-07 7.7543e-08 1.6868e-07 9.38811e-08 2.82848e-07 1.6868e-07 3.36906e-07 1.98909e-07 1.6868e-07 9.38811e-08 1.98909e-07 1.09912e-07 7.7543e-08 3.44552e-08 9.38811e-08 4.16679e-08 3.44552e-08 -5.23161e-10 4.16679e-08 -2.91233e-10 9.38811e-08 4.16679e-08 1.09912e-07 4.86381e-08 4.16679e-08 -2.91233e-10 4.86381e-08 -1.62966e-10 2.28334e-06 1.44398e-06 2.77152e-06 1.72236e-06 1.44398e-06 9.01222e-07 1.72236e-06 1.05915e-06 2.77152e-06 1.72236e-06 3.19761e-06 1.96033e-06 1.72236e-06 1.05915e-06 1.96033e-06 1.19184e-06 9.01222e-07 5.5534e-07 1.05915e-06 6.44532e-07 5.5534e-07 3.36906e-07 6.44532e-07 3.86943e-07 1.05915e-06 6.44532e-07 1.19184e-06 7.18389e-07 6.44532e-07 3.86943e-07 7.18389e-07 4.27875e-07 3.19761e-06 1.96033e-06 3.49172e-06 2.12219e-06 1.96033e-06 1.19184e-06 2.12219e-06 1.28099e-06 3.49172e-06 2.12219e-06 3.59712e-06 2.17976e-06 2.12219e-06 1.28099e-06 2.17976e-06 1.3125e-06 1.19184e-06 7.18389e-07 1.28099e-06 7.67509e-07 7.18389e-07 4.27875e-07 7.67509e-07 4.54864e-07 1.28099e-06 7.67509e-07 1.3125e-06 7.84779e-07 7.67509e-07 4.54864e-07 7.84779e-07 4.64311e-07 3.36906e-07 1.98909e-07 3.86943e-07 2.26529e-07 1.98909e-07 1.09912e-07 2.26529e-07 1.244e-07 3.86943e-07 2.26529e-07 4.27875e-07 2.48892e-07 2.26529e-07 1.244e-07 2.48892e-07 1.36033e-07 1.09912e-07 4.86381e-08 1.244e-07 5.48729e-08 4.86381e-08 -1.62966e-10 5.48729e-08 -9.24512e-11 1.244e-07 5.48729e-08 1.36033e-07 5.98438e-08 5.48729e-08 -9.24512e-11 5.98438e-08 -5.4626e-11 4.27875e-07 2.48892e-07 4.54864e-07 2.63534e-07 2.48892e-07 1.36033e-07 2.63534e-07 1.43606e-07 4.54864e-07 2.63534e-07 4.64311e-07 2.6864e-07 2.63534e-07 1.43606e-07 2.6864e-07 1.46239e-07 1.36033e-07 5.98438e-08 1.43606e-07 6.3065e-08 5.98438e-08 -5.4626e-11 6.3065e-08 -3.61774e-11 1.43606e-07 6.3065e-08 1.46239e-07 6.41826e-08 6.3065e-08 -3.61774e-11 6.41826e-08 -3.06673e-11 3.03466e-08 2.97592e-08 -6.1738e-08 -6.86896e-08 2.97592e-08 5.12513e-09 -6.86896e-08 -2.91342e-08 -6.1738e-08 -6.86896e-08 -4.74005e-08 -5.25477e-08 -6.86896e-08 -2.91342e-08 -5.25477e-08 -4.04232e-08 5.12513e-09 -1.04989e-08 -2.91342e-08 -1.83939e-08 -1.04989e-08 -1.75363e-08 -1.83939e-08 -1.74649e-08 -2.91342e-08 -1.83939e-08 -4.04232e-08 -2.70752e-08 -1.83939e-08 -1.74649e-08 -2.70752e-08 -2.39709e-08 -4.74005e-08 -5.25477e-08 -2.98414e-08 -3.52467e-08 -5.25477e-08 -4.04232e-08 -3.52467e-08 -3.35923e-08 -2.98414e-08 -3.52467e-08 -1.74152e-08 -2.43091e-08 -3.52467e-08 -3.35923e-08 -2.43091e-08 -2.89053e-08 -4.04232e-08 -2.70752e-08 -3.35923e-08 -3.09295e-08 -2.70752e-08 -2.39709e-08 -3.09295e-08 -3.20594e-08 -3.35923e-08 -3.09295e-08 -2.89053e-08 -3.38514e-08 -3.09295e-08 -3.20594e-08 -3.38514e-08 -4.21928e-08 -1.75363e-08 -2.31871e-08 -1.74649e-08 -2.04442e-08 -2.31871e-08 -2.96982e-08 -2.04442e-08 -2.56602e-08 -1.74649e-08 -2.04442e-08 -2.39709e-08 -2.70047e-08 -2.04442e-08 -2.56602e-08 -2.70047e-08 -3.40191e-08 -2.96982e-08 -3.78575e-08 -2.56602e-08 -3.27131e-08 -3.78575e-08 -4.77312e-08 -3.27131e-08 -4.14469e-08 -2.56602e-08 -3.27131e-08 -3.40191e-08 -4.41273e-08 -3.27131e-08 -4.14469e-08 -4.41273e-08 -5.70399e-08 -2.39709e-08 -2.70047e-08 -3.20594e-08 -3.88873e-08 -2.70047e-08 -3.40191e-08 -3.88873e-08 -5.08156e-08 -3.20594e-08 -3.88873e-08 -4.21928e-08 -5.59306e-08 -3.88873e-08 -5.08156e-08 -5.59306e-08 -7.62645e-08 -3.40191e-08 -4.41273e-08 -5.08156e-08 -6.75521e-08 -4.41273e-08 -5.70399e-08 -6.75521e-08 -8.90762e-08 -5.08156e-08 -6.75521e-08 -7.62645e-08 -1.03937e-07 -6.75521e-08 -8.90762e-08 -1.03937e-07 -1.39616e-07 -1.74152e-08 -2.43091e-08 -9.86817e-09 -1.92186e-08 -2.43091e-08 -2.89053e-08 -1.92186e-08 -2.85883e-08 -9.86817e-09 -1.92186e-08 -5.51427e-09 -1.82264e-08 -1.92186e-08 -2.85883e-08 -1.82264e-08 -3.24733e-08 -2.89053e-08 -3.38514e-08 -2.85883e-08 -4.01372e-08 -3.38514e-08 -4.21928e-08 -4.01372e-08 -5.63897e-08 -2.85883e-08 -4.01372e-08 -3.24733e-08 -5.08671e-08 -4.01372e-08 -5.63897e-08 -5.08671e-08 -7.65017e-08 -5.51427e-09 -1.82264e-08 -3.06356e-09 -2.00609e-08 -1.82264e-08 -3.24733e-08 -2.00609e-08 -3.99405e-08 -3.06356e-09 -2.00609e-08 -1.69876e-09 -2.39033e-08 -2.00609e-08 -3.99405e-08 -2.39033e-08 -5.04608e-08 -3.24733e-08 -5.08671e-08 -3.99405e-08 -6.63446e-08 -5.08671e-08 -7.65017e-08 -6.63446e-08 -1.03668e-07 -3.99405e-08 -6.63446e-08 -5.04608e-08 -8.65272e-08 -6.63446e-08 -1.03668e-07 -8.65272e-08 -1.38509e-07 -4.21928e-08 -5.59306e-08 -5.63897e-08 -7.98416e-08 -5.59306e-08 -7.62645e-08 -7.98416e-08 -1.12768e-07 -5.63897e-08 -7.98416e-08 -7.65017e-08 -1.12885e-07 -7.98416e-08 -1.12768e-07 -1.12885e-07 -1.63854e-07 -7.62645e-08 -1.03937e-07 -1.12768e-07 -1.57254e-07 -1.03937e-07 -1.39616e-07 -1.57254e-07 -2.15121e-07 -1.12768e-07 -1.57254e-07 -1.63854e-07 -2.33389e-07 -1.57254e-07 -2.15121e-07 -2.33389e-07 -3.25298e-07 -7.65017e-08 -1.12885e-07 -1.03668e-07 -1.57251e-07 -1.12885e-07 -1.63854e-07 -1.57251e-07 -2.33432e-07 -1.03668e-07 -1.57251e-07 -1.38509e-07 -2.14577e-07 -1.57251e-07 -2.33432e-07 -2.14577e-07 -3.25009e-07 -1.63854e-07 -2.33389e-07 -2.33432e-07 -3.39343e-07 -2.33389e-07 -3.25298e-07 -3.39343e-07 -4.82362e-07 -2.33432e-07 -3.39343e-07 -3.25009e-07 -4.82143e-07 -3.39343e-07 -4.82362e-07 -4.82143e-07 -6.99731e-07 -4.77312e-08 -5.90281e-08 -4.14469e-08 -5.16787e-08 -5.90281e-08 -7.11044e-08 -5.16787e-08 -6.31508e-08 -4.14469e-08 -5.16787e-08 -5.70399e-08 -7.26407e-08 -5.16787e-08 -6.31508e-08 -7.26407e-08 -9.09057e-08 -7.11044e-08 -8.28495e-08 -6.31508e-08 -7.56249e-08 -8.28495e-08 -9.25268e-08 -7.56249e-08 -8.92285e-08 -6.31508e-08 -7.56249e-08 -9.09057e-08 -1.12129e-07 -7.56249e-08 -8.92285e-08 -1.12129e-07 -1.37602e-07 -5.70399e-08 -7.26407e-08 -8.90762e-08 -1.15477e-07 -7.26407e-08 -9.09057e-08 -1.15477e-07 -1.46955e-07 -8.90762e-08 -1.15477e-07 -1.39616e-07 -1.83854e-07 -1.15477e-07 -1.46955e-07 -1.83854e-07 -2.3721e-07 -9.09057e-08 -1.12129e-07 -1.46955e-07 -1.84247e-07 -1.12129e-07 -1.37602e-07 -1.84247e-07 -2.29778e-07 -1.46955e-07 -1.84247e-07 -2.3721e-07 -3.00974e-07 -1.84247e-07 -2.29778e-07 -3.00974e-07 -3.79135e-07 -9.25268e-08 -9.77893e-08 -8.92285e-08 -1.05318e-07 -9.77893e-08 -9.67036e-08 -1.05318e-07 -1.28233e-07 -8.92285e-08 -1.05318e-07 -1.37602e-07 -1.7106e-07 -1.05318e-07 -1.28233e-07 -1.7106e-07 -2.21481e-07 -9.67036e-08 -9.29944e-08 -1.28233e-07 -1.67595e-07 -9.29944e-08 -1.0976e-07 -1.67595e-07 -2.43282e-07 -1.28233e-07 -1.67595e-07 -2.21481e-07 -3.08977e-07 -1.67595e-07 -2.43282e-07 -3.08977e-07 -4.8163e-07 -1.37602e-07 -1.7106e-07 -2.29778e-07 -2.90214e-07 -1.7106e-07 -2.21481e-07 -2.90214e-07 -3.81731e-07 -2.29778e-07 -2.90214e-07 -3.79135e-07 -4.82758e-07 -2.90214e-07 -3.81731e-07 -4.82758e-07 -6.38945e-07 -2.21481e-07 -3.08977e-07 -3.81731e-07 -5.41237e-07 -3.08977e-07 -4.8163e-07 -5.41237e-07 -8.46242e-07 -3.81731e-07 -5.41237e-07 -6.38945e-07 -9.07869e-07 -5.41237e-07 -8.46242e-07 -9.07869e-07 -1.41373e-06 -1.39616e-07 -1.83854e-07 -2.15121e-07 -2.87827e-07 -1.83854e-07 -2.3721e-07 -2.87827e-07 -3.7662e-07 -2.15121e-07 -2.87827e-07 -3.25298e-07 -4.42822e-07 -2.87827e-07 -3.7662e-07 -4.42822e-07 -5.88648e-07 -2.3721e-07 -3.00974e-07 -3.7662e-07 -4.83646e-07 -3.00974e-07 -3.79135e-07 -4.83646e-07 -6.15153e-07 -3.7662e-07 -4.83646e-07 -5.88648e-07 -7.66388e-07 -4.83646e-07 -6.15153e-07 -7.66388e-07 -9.85525e-07 -3.25298e-07 -4.42822e-07 -4.82362e-07 -6.69302e-07 -4.42822e-07 -5.88648e-07 -6.69302e-07 -9.05979e-07 -4.82362e-07 -6.69302e-07 -6.99731e-07 -9.91613e-07 -6.69302e-07 -9.05979e-07 -9.91613e-07 -1.37042e-06 -5.88648e-07 -7.66388e-07 -9.05979e-07 -1.19884e-06 -7.66388e-07 -9.85525e-07 -1.19884e-06 -1.56208e-06 -9.05979e-07 -1.19884e-06 -1.37042e-06 -1.84869e-06 -1.19884e-06 -1.56208e-06 -1.84869e-06 -2.44802e-06 -3.79135e-07 -4.82758e-07 -6.15153e-07 -7.88736e-07 -4.82758e-07 -6.38945e-07 -7.88736e-07 -1.04776e-06 -6.15153e-07 -7.88736e-07 -9.85525e-07 -1.27305e-06 -7.88736e-07 -1.04776e-06 -1.27305e-06 -1.69656e-06 -6.38945e-07 -9.07869e-07 -1.04776e-06 -1.48797e-06 -9.07869e-07 -1.41373e-06 -1.48797e-06 -2.30333e-06 -1.04776e-06 -1.48797e-06 -1.69656e-06 -2.4053e-06 -1.48797e-06 -2.30333e-06 -2.4053e-06 -3.69593e-06 -9.85525e-07 -1.27305e-06 -1.56208e-06 -2.03567e-06 -1.27305e-06 -1.69656e-06 -2.03567e-06 -2.72195e-06 -1.56208e-06 -2.03567e-06 -2.44802e-06 -3.22557e-06 -2.03567e-06 -2.72195e-06 -3.22557e-06 -4.33027e-06 -1.69656e-06 -2.4053e-06 -2.72195e-06 -3.84819e-06 -2.4053e-06 -3.69593e-06 -3.84819e-06 -5.85828e-06 -2.72195e-06 -3.84819e-06 -4.33027e-06 -6.0975e-06 -3.84819e-06 -5.85828e-06 -6.0975e-06 -9.17362e-06 -1.69876e-09 -2.39033e-08 -9.42112e-10 -2.91951e-08 -2.39033e-08 -5.04608e-08 -2.91951e-08 -6.35157e-08 -9.42112e-10 -2.91951e-08 -5.23161e-10 -3.54663e-08 -2.91951e-08 -6.35157e-08 -3.54663e-08 -7.84549e-08 -5.04608e-08 -8.65272e-08 -6.35157e-08 -1.11048e-07 -8.65272e-08 -1.38509e-07 -1.11048e-07 -1.80954e-07 -6.35157e-08 -1.11048e-07 -7.84549e-08 -1.39061e-07 -1.11048e-07 -1.80954e-07 -1.39061e-07 -2.29949e-07 -5.23161e-10 -3.54663e-08 -2.91233e-10 -4.22325e-08 -3.54663e-08 -7.84549e-08 -4.22325e-08 -9.4395e-08 -2.91233e-10 -4.22325e-08 -1.62966e-10 -4.89548e-08 -4.22325e-08 -9.4395e-08 -4.89548e-08 -1.10203e-07 -7.84549e-08 -1.39061e-07 -9.4395e-08 -1.69118e-07 -1.39061e-07 -2.29949e-07 -1.69118e-07 -2.83197e-07 -9.4395e-08 -1.69118e-07 -1.10203e-07 -1.9916e-07 -1.69118e-07 -2.83197e-07 -1.9916e-07 -3.37109e-07 -1.38509e-07 -2.14577e-07 -1.80954e-07 -2.85432e-07 -2.14577e-07 -3.25009e-07 -2.85432e-07 -4.40613e-07 -1.80954e-07 -2.85432e-07 -2.29949e-07 -3.68647e-07 -2.85432e-07 -4.40613e-07 -3.68647e-07 -5.79428e-07 -3.25009e-07 -4.82143e-07 -4.40613e-07 -6.67049e-07 -4.82143e-07 -6.9