# vtk DataFile Version 3.0
#This file was generated by the deal.II library on 2022/11/17 at 0:07:43
ASCII
DATASET UNSTRUCTURED_GRID

POINTS 4096 double
0 0.5 0
0.03125 0.5 0
0 0.53125 0
0.03125 0.53125 0
0.03125 0.5 0
0.0625 0.5 0
0.03125 0.53125 0
0.0625 0.53125 0
0 0.53125 0
0.03125 0.53125 0
0 0.5625 0
0.03125 0.5625 0
0.03125 0.53125 0
0.0625 0.53125 0
0.03125 0.5625 0
0.0625 0.5625 0
0.0625 0.5 0
0.09375 0.5 0
0.0625 0.53125 0
0.09375 0.53125 0
0.09375 0.5 0
0.125 0.5 0
0.09375 0.53125 0
0.125 0.53125 0
0.0625 0.53125 0
0.09375 0.53125 0
0.0625 0.5625 0
0.09375 0.5625 0
0.09375 0.53125 0
0.125 0.53125 0
0.09375 0.5625 0
0.125 0.5625 0
0 0.5625 0
0.03125 0.5625 0
0 0.59375 0
0.03125 0.59375 0
0.03125 0.5625 0
0.0625 0.5625 0
0.03125 0.59375 0
0.0625 0.59375 0
0 0.59375 0
0.03125 0.59375 0
0 0.625 0
0.03125 0.625 0
0.03125 0.59375 0
0.0625 0.59375 0
0.03125 0.625 0
0.0625 0.625 0
0.0625 0.5625 0
0.09375 0.5625 0
0.0625 0.59375 0
0.09375 0.59375 0
0.09375 0.5625 0
0.125 0.5625 0
0.09375 0.59375 0
0.125 0.59375 0
0.0625 0.59375 0
0.09375 0.59375 0
0.0625 0.625 0
0.09375 0.625 0
0.09375 0.59375 0
0.125 0.59375 0
0.09375 0.625 0
0.125 0.625 0
0.125 0.5 0
0.15625 0.5 0
0.125 0.53125 0
0.15625 0.53125 0
0.15625 0.5 0
0.1875 0.5 0
0.15625 0.53125 0
0.1875 0.53125 0
0.125 0.53125 0
0.15625 0.53125 0
0.125 0.5625 0
0.15625 0.5625 0
0.15625 0.53125 0
0.1875 0.53125 0
0.15625 0.5625 0
0.1875 0.5625 0
0.1875 0.5 0
0.21875 0.5 0
0.1875 0.53125 0
0.21875 0.53125 0
0.21875 0.5 0
0.25 0.5 0
0.21875 0.53125 0
0.25 0.53125 0
0.1875 0.53125 0
0.21875 0.53125 0
0.1875 0.5625 0
0.21875 0.5625 0
0.21875 0.53125 0
0.25 0.53125 0
0.21875 0.5625 0
0.25 0.5625 0
0.125 0.5625 0
0.15625 0.5625 0
0.125 0.59375 0
0.15625 0.59375 0
0.15625 0.5625 0
0.1875 0.5625 0
0.15625 0.59375 0
0.1875 0.59375 0
0.125 0.59375 0
0.15625 0.59375 0
0.125 0.625 0
0.15625 0.625 0
0.15625 0.59375 0
0.1875 0.59375 0
0.15625 0.625 0
0.1875 0.625 0
0.1875 0.5625 0
0.21875 0.5625 0
0.1875 0.59375 0
0.21875 0.59375 0
0.21875 0.5625 0
0.25 0.5625 0
0.21875 0.59375 0
0.25 0.59375 0
0.1875 0.59375 0
0.21875 0.59375 0
0.1875 0.625 0
0.21875 0.625 0
0.21875 0.59375 0
0.25 0.59375 0
0.21875 0.625 0
0.25 0.625 0
0 0.625 0
0.03125 0.625 0
0 0.65625 0
0.03125 0.65625 0
0.03125 0.625 0
0.0625 0.625 0
0.03125 0.65625 0
0.0625 0.65625 0
0 0.65625 0
0.03125 0.65625 0
0 0.6875 0
0.03125 0.6875 0
0.03125 0.65625 0
0.0625 0.65625 0
0.03125 0.6875 0
0.0625 0.6875 0
0.0625 0.625 0
0.09375 0.625 0
0.0625 0.65625 0
0.09375 0.65625 0
0.09375 0.625 0
0.125 0.625 0
0.09375 0.65625 0
0.125 0.65625 0
0.0625 0.65625 0
0.09375 0.65625 0
0.0625 0.6875 0
0.09375 0.6875 0
0.09375 0.65625 0
0.125 0.65625 0
0.09375 0.6875 0
0.125 0.6875 0
0 0.6875 0
0.03125 0.6875 0
0 0.71875 0
0.03125 0.71875 0
0.03125 0.6875 0
0.0625 0.6875 0
0.03125 0.71875 0
0.0625 0.71875 0
0 0.71875 0
0.03125 0.71875 0
0 0.75 0
0.03125 0.75 0
0.03125 0.71875 0
0.0625 0.71875 0
0.03125 0.75 0
0.0625 0.75 0
0.0625 0.6875 0
0.09375 0.6875 0
0.0625 0.71875 0
0.09375 0.71875 0
0.09375 0.6875 0
0.125 0.6875 0
0.09375 0.71875 0
0.125 0.71875 0
0.0625 0.71875 0
0.09375 0.71875 0
0.0625 0.75 0
0.09375 0.75 0
0.09375 0.71875 0
0.125 0.71875 0
0.09375 0.75 0
0.125 0.75 0
0.125 0.625 0
0.15625 0.625 0
0.125 0.65625 0
0.15625 0.65625 0
0.15625 0.625 0
0.1875 0.625 0
0.15625 0.65625 0
0.1875 0.65625 0
0.125 0.65625 0
0.15625 0.65625 0
0.125 0.6875 0
0.15625 0.6875 0
0.15625 0.65625 0
0.1875 0.65625 0
0.15625 0.6875 0
0.1875 0.6875 0
0.1875 0.625 0
0.21875 0.625 0
0.1875 0.65625 0
0.21875 0.65625 0
0.21875 0.625 0
0.25 0.625 0
0.21875 0.65625 0
0.25 0.65625 0
0.1875 0.65625 0
0.21875 0.65625 0
0.1875 0.6875 0
0.21875 0.6875 0
0.21875 0.65625 0
0.25 0.65625 0
0.21875 0.6875 0
0.25 0.6875 0
0.125 0.6875 0
0.15625 0.6875 0
0.125 0.71875 0
0.15625 0.71875 0
0.15625 0.6875 0
0.1875 0.6875 0
0.15625 0.71875 0
0.1875 0.71875 0
0.125 0.71875 0
0.15625 0.71875 0
0.125 0.75 0
0.15625 0.75 0
0.15625 0.71875 0
0.1875 0.71875 0
0.15625 0.75 0
0.1875 0.75 0
0.1875 0.6875 0
0.21875 0.6875 0
0.1875 0.71875 0
0.21875 0.71875 0
0.21875 0.6875 0
0.25 0.6875 0
0.21875 0.71875 0
0.25 0.71875 0
0.1875 0.71875 0
0.21875 0.71875 0
0.1875 0.75 0
0.21875 0.75 0
0.21875 0.71875 0
0.25 0.71875 0
0.21875 0.75 0
0.25 0.75 0
0.25 0.5 0
0.28125 0.5 0
0.25 0.53125 0
0.28125 0.53125 0
0.28125 0.5 0
0.3125 0.5 0
0.28125 0.53125 0
0.3125 0.53125 0
0.25 0.53125 0
0.28125 0.53125 0
0.25 0.5625 0
0.28125 0.5625 0
0.28125 0.53125 0
0.3125 0.53125 0
0.28125 0.5625 0
0.3125 0.5625 0
0.3125 0.5 0
0.34375 0.5 0
0.3125 0.53125 0
0.34375 0.53125 0
0.34375 0.5 0
0.375 0.5 0
0.34375 0.53125 0
0.375 0.53125 0
0.3125 0.53125 0
0.34375 0.53125 0
0.3125 0.5625 0
0.34375 0.5625 0
0.34375 0.53125 0
0.375 0.53125 0
0.34375 0.5625 0
0.375 0.5625 0
0.25 0.5625 0
0.28125 0.5625 0
0.25 0.59375 0
0.28125 0.59375 0
0.28125 0.5625 0
0.3125 0.5625 0
0.28125 0.59375 0
0.3125 0.59375 0
0.25 0.59375 0
0.28125 0.59375 0
0.25 0.625 0
0.28125 0.625 0
0.28125 0.59375 0
0.3125 0.59375 0
0.28125 0.625 0
0.3125 0.625 0
0.3125 0.5625 0
0.34375 0.5625 0
0.3125 0.59375 0
0.34375 0.59375 0
0.34375 0.5625 0
0.375 0.5625 0
0.34375 0.59375 0
0.375 0.59375 0
0.3125 0.59375 0
0.34375 0.59375 0
0.3125 0.625 0
0.34375 0.625 0
0.34375 0.59375 0
0.375 0.59375 0
0.34375 0.625 0
0.375 0.625 0
0.375 0.5 0
0.40625 0.5 0
0.375 0.53125 0
0.40625 0.53125 0
0.40625 0.5 0
0.4375 0.5 0
0.40625 0.53125 0
0.4375 0.53125 0
0.375 0.53125 0
0.40625 0.53125 0
0.375 0.5625 0
0.40625 0.5625 0
0.40625 0.53125 0
0.4375 0.53125 0
0.40625 0.5625 0
0.4375 0.5625 0
0.4375 0.5 0
0.46875 0.5 0
0.4375 0.53125 0
0.46875 0.53125 0
0.46875 0.5 0
0.5 0.5 0
0.46875 0.53125 0
0.5 0.53125 0
0.4375 0.53125 0
0.46875 0.53125 0
0.4375 0.5625 0
0.46875 0.5625 0
0.46875 0.53125 0
0.5 0.53125 0
0.46875 0.5625 0
0.5 0.5625 0
0.375 0.5625 0
0.40625 0.5625 0
0.375 0.59375 0
0.40625 0.59375 0
0.40625 0.5625 0
0.4375 0.5625 0
0.40625 0.59375 0
0.4375 0.59375 0
0.375 0.59375 0
0.40625 0.59375 0
0.375 0.625 0
0.40625 0.625 0
0.40625 0.59375 0
0.4375 0.59375 0
0.40625 0.625 0
0.4375 0.625 0
0.4375 0.5625 0
0.46875 0.5625 0
0.4375 0.59375 0
0.46875 0.59375 0
0.46875 0.5625 0
0.5 0.5625 0
0.46875 0.59375 0
0.5 0.59375 0
0.4375 0.59375 0
0.46875 0.59375 0
0.4375 0.625 0
0.46875 0.625 0
0.46875 0.59375 0
0.5 0.59375 0
0.46875 0.625 0
0.5 0.625 0
0.25 0.625 0
0.28125 0.625 0
0.25 0.65625 0
0.28125 0.65625 0
0.28125 0.625 0
0.3125 0.625 0
0.28125 0.65625 0
0.3125 0.65625 0
0.25 0.65625 0
0.28125 0.65625 0
0.25 0.6875 0
0.28125 0.6875 0
0.28125 0.65625 0
0.3125 0.65625 0
0.28125 0.6875 0
0.3125 0.6875 0
0.3125 0.625 0
0.34375 0.625 0
0.3125 0.65625 0
0.34375 0.65625 0
0.34375 0.625 0
0.375 0.625 0
0.34375 0.65625 0
0.375 0.65625 0
0.3125 0.65625 0
0.34375 0.65625 0
0.3125 0.6875 0
0.34375 0.6875 0
0.34375 0.65625 0
0.375 0.65625 0
0.34375 0.6875 0
0.375 0.6875 0
0.25 0.6875 0
0.28125 0.6875 0
0.25 0.71875 0
0.28125 0.71875 0
0.28125 0.6875 0
0.3125 0.6875 0
0.28125 0.71875 0
0.3125 0.71875 0
0.25 0.71875 0
0.28125 0.71875 0
0.25 0.75 0
0.28125 0.75 0
0.28125 0.71875 0
0.3125 0.71875 0
0.28125 0.75 0
0.3125 0.75 0
0.3125 0.6875 0
0.34375 0.6875 0
0.3125 0.71875 0
0.34375 0.71875 0
0.34375 0.6875 0
0.375 0.6875 0
0.34375 0.71875 0
0.375 0.71875 0
0.3125 0.71875 0
0.34375 0.71875 0
0.3125 0.75 0
0.34375 0.75 0
0.34375 0.71875 0
0.375 0.71875 0
0.34375 0.75 0
0.375 0.75 0
0.375 0.625 0
0.40625 0.625 0
0.375 0.65625 0
0.40625 0.65625 0
0.40625 0.625 0
0.4375 0.625 0
0.40625 0.65625 0
0.4375 0.65625 0
0.375 0.65625 0
0.40625 0.65625 0
0.375 0.6875 0
0.40625 0.6875 0
0.40625 0.65625 0
0.4375 0.65625 0
0.40625 0.6875 0
0.4375 0.6875 0
0.4375 0.625 0
0.46875 0.625 0
0.4375 0.65625 0
0.46875 0.65625 0
0.46875 0.625 0
0.5 0.625 0
0.46875 0.65625 0
0.5 0.65625 0
0.4375 0.65625 0
0.46875 0.65625 0
0.4375 0.6875 0
0.46875 0.6875 0
0.46875 0.65625 0
0.5 0.65625 0
0.46875 0.6875 0
0.5 0.6875 0
0.375 0.6875 0
0.40625 0.6875 0
0.375 0.71875 0
0.40625 0.71875 0
0.40625 0.6875 0
0.4375 0.6875 0
0.40625 0.71875 0
0.4375 0.71875 0
0.375 0.71875 0
0.40625 0.71875 0
0.375 0.75 0
0.40625 0.75 0
0.40625 0.71875 0
0.4375 0.71875 0
0.40625 0.75 0
0.4375 0.75 0
0.4375 0.6875 0
0.46875 0.6875 0
0.4375 0.71875 0
0.46875 0.71875 0
0.46875 0.6875 0
0.5 0.6875 0
0.46875 0.71875 0
0.5 0.71875 0
0.4375 0.71875 0
0.46875 0.71875 0
0.4375 0.75 0
0.46875 0.75 0
0.46875 0.71875 0
0.5 0.71875 0
0.46875 0.75 0
0.5 0.75 0
0 0.75 0
0.03125 0.75 0
0 0.78125 0
0.03125 0.78125 0
0.03125 0.75 0
0.0625 0.75 0
0.03125 0.78125 0
0.0625 0.78125 0
0 0.78125 0
0.03125 0.78125 0
0 0.8125 0
0.03125 0.8125 0
0.03125 0.78125 0
0.0625 0.78125 0
0.03125 0.8125 0
0.0625 0.8125 0
0.0625 0.75 0
0.09375 0.75 0
0.0625 0.78125 0
0.09375 0.78125 0
0.09375 0.75 0
0.125 0.75 0
0.09375 0.78125 0
0.125 0.78125 0
0.0625 0.78125 0
0.09375 0.78125 0
0.0625 0.8125 0
0.09375 0.8125 0
0.09375 0.78125 0
0.125 0.78125 0
0.09375 0.8125 0
0.125 0.8125 0
0 0.8125 0
0.03125 0.8125 0
0 0.84375 0
0.03125 0.84375 0
0.03125 0.8125 0
0.0625 0.8125 0
0.03125 0.84375 0
0.0625 0.84375 0
0 0.84375 0
0.03125 0.84375 0
0 0.875 0
0.03125 0.875 0
0.03125 0.84375 0
0.0625 0.84375 0
0.03125 0.875 0
0.0625 0.875 0
0.0625 0.8125 0
0.09375 0.8125 0
0.0625 0.84375 0
0.09375 0.84375 0
0.09375 0.8125 0
0.125 0.8125 0
0.09375 0.84375 0
0.125 0.84375 0
0.0625 0.84375 0
0.09375 0.84375 0
0.0625 0.875 0
0.09375 0.875 0
0.09375 0.84375 0
0.125 0.84375 0
0.09375 0.875 0
0.125 0.875 0
0.125 0.75 0
0.15625 0.75 0
0.125 0.78125 0
0.15625 0.78125 0
0.15625 0.75 0
0.1875 0.75 0
0.15625 0.78125 0
0.1875 0.78125 0
0.125 0.78125 0
0.15625 0.78125 0
0.125 0.8125 0
0.15625 0.8125 0
0.15625 0.78125 0
0.1875 0.78125 0
0.15625 0.8125 0
0.1875 0.8125 0
0.1875 0.75 0
0.21875 0.75 0
0.1875 0.78125 0
0.21875 0.78125 0
0.21875 0.75 0
0.25 0.75 0
0.21875 0.78125 0
0.25 0.78125 0
0.1875 0.78125 0
0.21875 0.78125 0
0.1875 0.8125 0
0.21875 0.8125 0
0.21875 0.78125 0
0.25 0.78125 0
0.21875 0.8125 0
0.25 0.8125 0
0.125 0.8125 0
0.15625 0.8125 0
0.125 0.84375 0
0.15625 0.84375 0
0.15625 0.8125 0
[...]
POINT_DATA 4096
SCALARS x_dis double 1
LOOKUP_TABLE default
2.49832e-06 1.70663e-06 3.74473e-06 2.57564e-06 1.70663e-06 1.24365e-06 2.57564e-06 1.88084e-06 3.74473e-06 2.57564e-06 5.55736e-06 3.85247e-06 2.57564e-06 1.88084e-06 3.85247e-06 2.8213e-06 1.24365e-06 9.60454e-07 1.88084e-06 1.45091e-06 9.60454e-07 7.72648e-07 1.45091e-06 1.16388e-06 1.88084e-06 1.45091e-06 2.8213e-06 2.17494e-06 1.45091e-06 1.16388e-06 2.17494e-06 1.73981e-06 5.55736e-06 3.85247e-06 8.15839e-06 5.7069e-06 3.85247e-06 2.8213e-06 5.7069e-06 4.19542e-06 8.15839e-06 5.7069e-06 1.18359e-05 8.3665e-06 5.7069e-06 4.19542e-06 8.3665e-06 6.18153e-06 2.8213e-06 2.17494e-06 4.19542e-06 3.23395e-06 2.17494e-06 1.73981e-06 3.23395e-06 2.57995e-06 4.19542e-06 3.23395e-06 6.18153e-06 4.76767e-06 3.23395e-06 2.57995e-06 4.76767e-06 3.79342e-06 7.72648e-07 6.34912e-07 1.16388e-06 9.52937e-07 6.34912e-07 5.24231e-07 9.52937e-07 7.83749e-07 1.16388e-06 9.52937e-07 1.73981e-06 1.4188e-06 9.52937e-07 7.83749e-07 1.4188e-06 1.16145e-06 5.24231e-07 4.29615e-07 7.83749e-07 6.39915e-07 4.29615e-07 3.46096e-07 6.39915e-07 5.14108e-07 7.83749e-07 6.39915e-07 1.16145e-06 9.43607e-07 6.39915e-07 5.14108e-07 9.43607e-07 7.54569e-07 1.73981e-06 1.4188e-06 2.57995e-06 2.0947e-06 1.4188e-06 1.16145e-06 2.0947e-06 1.70538e-06 2.57995e-06 2.0947e-06 3.79342e-06 3.06492e-06 2.0947e-06 1.70538e-06 3.06492e-06 2.4794e-06 1.16145e-06 9.43607e-07 1.70538e-06 1.37711e-06 9.43607e-07 7.54569e-07 1.37711e-06 1.09452e-06 1.70538e-06 1.37711e-06 2.4794e-06 1.98766e-06 1.37711e-06 1.09452e-06 1.98766e-06 1.56806e-06 1.18359e-05 8.3665e-06 1.69506e-05 1.21287e-05 8.3665e-06 6.18153e-06 1.21287e-05 9.01857e-06 1.69506e-05 1.21287e-05 2.39344e-05 1.737e-05 1.21287e-05 9.01857e-06 1.737e-05 1.30179e-05 6.18153e-06 4.76767e-06 9.01857e-06 6.96481e-06 4.76767e-06 3.79342e-06 6.96481e-06 5.52667e-06 9.01857e-06 6.96481e-06 1.30179e-05 1.00729e-05 6.96481e-06 5.52667e-06 1.00729e-05 7.96971e-06 2.39344e-05 1.737e-05 3.32713e-05 2.45444e-05 1.737e-05 1.30179e-05 2.45444e-05 1.85679e-05 3.32713e-05 2.45444e-05 4.54459e-05 3.41567e-05 2.45444e-05 1.85679e-05 3.41567e-05 2.61161e-05 1.30179e-05 1.00729e-05 1.85679e-05 1.44018e-05 1.00729e-05 7.96971e-06 1.44018e-05 1.13563e-05 1.85679e-05 1.44018e-05 2.61161e-05 2.03082e-05 1.44018e-05 1.13563e-05 2.03082e-05 1.59486e-05 3.79342e-06 3.06492e-06 5.52667e-06 4.4406e-06 3.06492e-06 2.4794e-06 4.4406e-06 3.56565e-06 5.52667e-06 4.4406e-06 7.96971e-06 6.36262e-06 4.4406e-06 3.56565e-06 6.36262e-06 5.0649e-06 2.4794e-06 1.98766e-06 3.56565e-06 2.83418e-06 1.98766e-06 1.56806e-06 2.83418e-06 2.21617e-06 3.56565e-06 2.83418e-06 5.0649e-06 3.9862e-06 2.83418e-06 2.21617e-06 3.9862e-06 3.0851e-06 7.96971e-06 6.36262e-06 1.13563e-05 8.99885e-06 6.36262e-06 5.0649e-06 8.99885e-06 7.09231e-06 1.13563e-05 8.99885e-06 1.59486e-05 1.25295e-05 8.99885e-06 7.09231e-06 1.25295e-05 9.76439e-06 5.0649e-06 3.9862e-06 7.09231e-06 5.51922e-06 3.9862e-06 3.0851e-06 5.51922e-06 4.22212e-06 7.09231e-06 5.51922e-06 9.76439e-06 7.50413e-06 5.51922e-06 4.22212e-06 7.50413e-06 5.66762e-06 3.46096e-07 2.71398e-07 5.14108e-07 4.03015e-07 2.71398e-07 2.04269e-07 4.03015e-07 3.04642e-07 5.14108e-07 4.03015e-07 7.54569e-07 5.89448e-07 4.03015e-07 3.04642e-07 5.89448e-07 4.44942e-07 2.04269e-07 1.43974e-07 3.04642e-07 2.17042e-07 1.43974e-07 9.09613e-08 2.17042e-07 1.37895e-07 3.04642e-07 2.17042e-07 4.44942e-07 3.1692e-07 2.17042e-07 1.37895e-07 3.1692e-07 1.98328e-07 7.54569e-07 5.89448e-07 1.09452e-06 8.50574e-07 5.89448e-07 4.44942e-07 8.50574e-07 6.40305e-07 1.09452e-06 8.50574e-07 1.56806e-06 1.21056e-06 8.50574e-07 6.40305e-07 1.21056e-06 9.07985e-07 4.44942e-07 3.1692e-07 6.40305e-07 4.57399e-07 3.1692e-07 1.98328e-07 4.57399e-07 2.91736e-07 6.40305e-07 4.57399e-07 9.07985e-07 6.51793e-07 4.57399e-07 2.91736e-07 6.51793e-07 4.30246e-07 9.09613e-08 5.03402e-08 1.37895e-07 6.36172e-08 5.03402e-08 4.01044e-08 6.36172e-08 -1.44081e-08 1.37895e-07 6.36172e-08 1.98328e-07 7.51269e-08 6.36172e-08 -1.44081e-08 7.51269e-08 -8.60374e-08 4.01044e-08 1.52658e-07 -1.44081e-08 -1.67881e-07 1.52658e-07 4.29231e-07 -1.67881e-07 -7.23386e-07 -1.44081e-08 -1.67881e-07 -8.60374e-08 -3.63833e-07 -1.67881e-07 -7.23386e-07 -3.63833e-07 -6.56621e-07 1.98328e-07 7.51269e-08 2.91736e-07 1.26621e-07 7.51269e-08 -8.60374e-08 1.26621e-07 -6.37309e-08 2.91736e-07 1.26621e-07 4.30246e-07 2.28331e-07 1.26621e-07 -6.37309e-08 2.28331e-07 3.46364e-08 -8.60374e-08 -3.63833e-07 -6.37309e-08 -2.78061e-07 -3.63833e-07 -6.56621e-07 -2.78061e-07 -4.70026e-07 -6.37309e-08 -2.78061e-07 3.46364e-08 -1.5031e-07 -2.78061e-07 -4.70026e-07 -1.5031e-07 -3.06928e-07 1.56806e-06 1.21056e-06 2.21617e-06 1.69708e-06 1.21056e-06 9.07985e-07 1.69708e-06 1.2661e-06 2.21617e-06 1.69708e-06 3.0851e-06 2.33967e-06 1.69708e-06 1.2661e-06 2.33967e-06 1.73242e-06 9.07985e-07 6.51793e-07 1.2661e-06 9.11132e-07 6.51793e-07 4.30246e-07 9.11132e-07 6.17619e-07 1.2661e-06 9.11132e-07 1.73242e-06 1.24443e-06 9.11132e-07 6.17619e-07 1.24443e-06 8.54682e-07 3.0851e-06 2.33967e-06 4.22212e-06 3.16647e-06 2.33967e-06 1.73242e-06 3.16647e-06 2.32244e-06 4.22212e-06 3.16647e-06 5.66762e-06 4.19866e-06 3.16647e-06 2.32244e-06 4.19866e-06 3.0459e-06 1.73242e-06 1.24443e-06 2.32244e-06 1.65868e-06 1.24443e-06 8.54682e-07 1.65868e-06 1.14213e-06 2.32244e-06 1.65868e-06 3.0459e-06 2.15709e-06 1.65868e-06 1.14213e-06 2.15709e-06 1.47992e-06 4.30246e-07 2.28331e-07 6.17619e-07 3.70226e-07 2.28331e-07 3.46364e-08 3.70226e-07 1.56109e-07 6.17619e-07 3.70226e-07 8.54682e-07 5.41684e-07 3.70226e-07 1.56109e-07 5.41684e-07 2.85819e-07 3.46364e-08 -1.5031e-07 1.56109e-07 -3.11109e-08 -1.5031e-07 -3.06928e-07 -3.11109e-08 -1.92128e-07 1.56109e-07 -3.11109e-08 2.85819e-07 7.07128e-08 -3.11109e-08 -1.92128e-07 7.07128e-08 -1.17449e-07 8.54682e-07 5.41684e-07 1.14213e-06 7.40004e-07 5.41684e-07 2.85819e-07 7.40004e-07 4.21754e-07 1.14213e-06 7.40004e-07 1.47992e-06 9.64559e-07 7.40004e-07 4.21754e-07 9.64559e-07 5.65565e-07 2.85819e-07 7.07128e-08 4.21754e-07 1.59872e-07 7.07128e-08 -1.17449e-07 1.59872e-07 -7.0812e-08 4.21754e-07 1.59872e-07 5.65565e-07 2.42261e-07 1.59872e-07 -7.0812e-08 2.42261e-07 -4.23304e-08 4.54459e-05 3.41567e-05 6.0831e-05 4.66774e-05 3.41567e-05 2.61161e-05 4.66774e-05 3.61016e-05 6.0831e-05 4.66774e-05 7.94765e-05 6.23533e-05 4.66774e-05 3.61016e-05 6.23533e-05 4.8795e-05 2.61161e-05 2.03082e-05 3.61016e-05 2.81393e-05 2.03082e-05 1.59486e-05 2.81393e-05 2.19917e-05 3.61016e-05 2.81393e-05 4.8795e-05 3.81091e-05 2.81393e-05 2.19917e-05 3.81091e-05 2.96227e-05 7.94765e-05 6.23533e-05 0.000100777 8.08723e-05 6.23533e-05 4.8795e-05 8.08723e-05 6.40213e-05 0.000100777 8.08723e-05 0.000123113 0.000100957 8.08723e-05 6.40213e-05 0.000100957 8.08264e-05 4.8795e-05 3.81091e-05 6.40213e-05 5.00938e-05 3.81091e-05 2.96227e-05 5.00938e-05 3.8731e-05 6.40213e-05 5.00938e-05 8.08264e-05 6.33965e-05 5.00938e-05 3.8731e-05 6.33965e-05 4.8805e-05 1.59486e-05 1.25295e-05 2.19917e-05 1.71118e-05 1.25295e-05 9.76439e-06 1.71118e-05 1.31727e-05 2.19917e-05 1.71118e-05 2.96227e-05 2.2816e-05 1.71118e-05 1.31727e-05 2.2816e-05 1.73412e-05 9.76439e-06 7.50413e-06 1.31727e-05 9.98859e-06 7.50413e-06 5.66762e-06 9.98859e-06 7.44254e-06 1.31727e-05 9.98859e-06 1.73412e-05 1.29695e-05 9.98859e-06 7.44254e-06 1.29695e-05 9.53139e-06 2.96227e-05 2.2816e-05 3.8731e-05 2.95354e-05 2.2816e-05 1.73412e-05 2.95354e-05 2.21698e-05 3.8731e-05 2.95354e-05 4.8805e-05 3.68908e-05 2.95354e-05 2.21698e-05 3.68908e-05 2.73793e-05 1.73412e-05 1.29695e-05 2.21698e-05 1.63596e-05 1.29695e-05 9.53139e-06 1.63596e-05 1.18632e-05 2.21698e-05 1.63596e-05 2.73793e-05 1.99571e-05 1.63596e-05 1.18632e-05 1.99571e-05 1.42961e-05 0.000123113 0.000100957 0.00014381 0.000120212 0.000100957 8.08264e-05 0.000120212 9.73317e-05 0.00014381 0.000120212 0.000159921 0.000135743 0.000120212 9.73317e-05 0.000135743 0.000111117 8.08264e-05 6.33965e-05 9.73317e-05 7.66342e-05 6.33965e-05 4.8805e-05 7.66342e-05 5.88538e-05 9.73317e-05 7.66342e-05 0.000111117 8.79452e-05 7.66342e-05 5.88538e-05 8.79452e-05 6.75186e-05 0.000159921 0.000135743 0.000169635 0.000145443 0.000135743 0.000111117 0.000145443 0.000120102 0.000169635 0.000145443 0.000172791 0.000148665 0.000145443 0.000120102 0.000148665 0.000123187 0.000111117 8.79452e-05 0.000120102 9.55302e-05 8.79452e-05 6.75186e-05 9.55302e-05 7.34046e-05 0.000120102 9.55302e-05 0.000123187 9.81911e-05 9.55302e-05 7.34046e-05 9.81911e-05 7.54897e-05 4.8805e-05 3.68908e-05 5.88538e-05 4.41842e-05 3.68908e-05 2.73793e-05 4.41842e-05 3.24872e-05 5.88538e-05 4.41842e-05 6.75186e-05 5.04652e-05 4.41842e-05 3.24872e-05 5.04652e-05 3.68529e-05 2.73793e-05 1.99571e-05 3.24872e-05 2.34359e-05 1.99571e-05 1.42961e-05 2.34359e-05 1.66148e-05 3.24872e-05 2.34359e-05 3.68529e-05 2.63781e-05 2.34359e-05 1.66148e-05 2.63781e-05 1.85536e-05 6.75186e-05 5.04652e-05 7.34046e-05 5.47402e-05 5.04652e-05 3.68529e-05 5.47402e-05 3.98119e-05 7.34046e-05 5.47402e-05 7.54897e-05 5.62581e-05 5.47402e-05 3.98119e-05 5.62581e-05 4.08607e-05 3.68529e-05 2.63781e-05 3.98119e-05 2.83584e-05 2.63781e-05 1.85536e-05 2.83584e-05 1.98482e-05 3.98119e-05 2.83584e-05 4.08607e-05 2.90578e-05 2.83584e-05 1.98482e-05 2.90578e-05 2.03037e-05 5.66762e-06 4.19866e-06 7.44254e-06 5.44248e-06 4.19866e-06 3.0459e-06 5.44248e-06 3.9019e-06 7.44254e-06 5.44248e-06 9.53139e-06 6.87911e-06 5.44248e-06 3.9019e-06 6.87911e-06 4.87309e-06 3.0459e-06 2.15709e-06 3.9019e-06 2.73607e-06 2.15709e-06 1.47992e-06 2.73607e-06 1.86434e-06 3.9019e-06 2.73607e-06 4.87309e-06 3.38172e-06 2.73607e-06 1.86434e-06 3.38172e-06 2.28551e-06 9.53139e-06 6.87911e-06 1.18632e-05 8.45437e-06 6.87911e-06 4.87309e-06 8.45437e-06 5.92017e-06 1.18632e-05 8.45437e-06 1.42961e-05 1.00712e-05 8.45437e-06 5.92017e-06 1.00712e-05 6.97865e-06 4.87309e-06 3.38172e-06 5.92017e-06 4.0669e-06 3.38172e-06 2.28551e-06 4.0669e-06 2.72569e-06 5.92017e-06 4.0669e-06 6.97865e-06 4.74987e-06 4.0669e-06 2.72569e-06 4.74987e-06 3.15878e-06 1.47992e-06 9.64559e-07 1.86434e-06 1.21321e-06 9.64559e-07 5.65565e-07 1.21321e-06 7.17892e-07 1.86434e-06 1.21321e-06 2.28551e-06 1.48009e-06 1.21321e-06 7.17892e-07 1.48009e-06 8.76729e-07 5.65565e-07 2.42261e-07 7.17892e-07 3.21876e-07 2.42261e-07 -4.23304e-08 3.21876e-07 -2.51652e-08 7.17892e-07 3.21876e-07 8.76729e-07 4.00211e-07 3.21876e-07 -2.51652e-08 4.00211e-07 -1.49057e-08 2.28551e-06 1.48009e-06 2.72569e-06 1.75463e-06 1.48009e-06 8.76729e-07 1.75463e-06 1.03697e-06 2.72569e-06 1.75463e-06 3.15878e-06 2.02137e-06 1.75463e-06 1.03697e-06 2.02137e-06 1.19053e-06 8.76729e-07 4.00211e-07 1.03697e-06 4.76467e-07 4.00211e-07 -1.49057e-08 4.76467e-07 -8.81283e-09 1.03697e-06 4.76467e-07 1.19053e-06 5.47957e-07 4.76467e-07 -8.81283e-09 5.47957e-07 -5.22135e-09 1.42961e-05 1.00712e-05 1.66148e-05 1.15907e-05 1.00712e-05 6.97865e-06 1.15907e-05 7.96047e-06 1.66148e-05 1.15907e-05 1.85536e-05 1.28471e-05 1.15907e-05 7.96047e-06 1.28471e-05 8.76394e-06 6.97865e-06 4.74987e-06 7.96047e-06 5.3759e-06 4.74987e-06 3.15878e-06 5.3759e-06 3.55151e-06 7.96047e-06 5.3759e-06 8.76394e-06 5.88346e-06 5.3759e-06 3.55151e-06 5.88346e-06 3.86729e-06 1.85536e-05 1.28471e-05 1.98482e-05 1.36796e-05 1.28471e-05 8.76394e-06 1.36796e-05 9.29252e-06 1.98482e-05 1.36796e-05 2.03037e-05 1.39713e-05 1.36796e-05 9.29252e-06 1.39713e-05 9.47705e-06 8.76394e-06 5.88346e-06 9.29252e-06 6.21523e-06 5.88346e-06 3.86729e-06 6.21523e-06 4.07252e-06 9.29252e-06 6.21523e-06 9.47705e-06 6.33067e-06 6.21523e-06 4.07252e-06 6.33067e-06 4.14373e-06 3.15878e-06 2.02137e-06 3.55151e-06 2.26087e-06 2.02137e-06 1.19053e-06 2.26087e-06 1.32708e-06 3.55151e-06 2.26087e-06 3.86729e-06 2.45202e-06 2.26087e-06 1.32708e-06 2.45202e-06 1.4353e-06 1.19053e-06 5.47957e-07 1.32708e-06 6.1065e-07 5.47957e-07 -5.22135e-09 6.1065e-07 -3.13389e-09 1.32708e-06 6.1065e-07 1.4353e-06 6.59915e-07 6.1065e-07 -3.13389e-09 6.59915e-07 -1.96262e-09 3.86729e-06 2.45202e-06 4.07252e-06 2.57564e-06 2.45202e-06 1.4353e-06 2.57564e-06 1.50498e-06 4.07252e-06 2.57564e-06 4.14373e-06 2.61842e-06 2.57564e-06 1.50498e-06 2.61842e-06 1.52904e-06 1.4353e-06 6.59915e-07 1.50498e-06 6.91474e-07 6.59915e-07 -1.96262e-09 6.91474e-07 -1.37285e-09 1.50498e-06 6.91474e-07 1.52904e-06 7.02347e-07 6.91474e-07 -1.37285e-09 7.02347e-07 -1.19372e-09 4.29231e-07 4.18393e-07 -7.23386e-07 -8.4383e-07 4.18393e-07 8.91353e-08 -8.4383e-07 -4.22297e-07 -7.23386e-07 -8.4383e-07 -6.56621e-07 -7.49261e-07 -8.4383e-07 -4.22297e-07 -7.49261e-07 -6.11364e-07 8.91353e-08 -1.54536e-07 -4.22297e-07 -3.02406e-07 -1.54536e-07 -2.86751e-07 -3.02406e-07 -2.98997e-07 -4.22297e-07 -3.02406e-07 -6.11364e-07 -4.4388e-07 -3.02406e-07 -2.98997e-07 -4.4388e-07 -3.9468e-07 -6.56621e-07 -7.49261e-07 -4.70026e-07 -5.61384e-07 -7.49261e-07 -6.11364e-07 -5.61384e-07 -5.45632e-07 -4.70026e-07 -5.61384e-07 -3.06928e-07 -4.14457e-07 -5.61384e-07 -5.45632e-07 -4.14457e-07 -4.77553e-07 -6.11364e-07 -4.4388e-07 -5.45632e-07 -5.02179e-07 -4.4388e-07 -3.9468e-07 -5.02179e-07 -4.99379e-07 -5.45632e-07 -5.02179e-07 -4.77553e-07 -5.304e-07 -5.02179e-07 -4.99379e-07 -5.304e-07 -6.13295e-07 -2.86751e-07 -3.85948e-07 -2.98997e-07 -3.44358e-07 -3.85948e-07 -4.83977e-07 -3.44358e-07 -4.16134e-07 -2.98997e-07 -3.44358e-07 -3.9468e-07 -4.2362e-07 -3.44358e-07 -4.16134e-07 -4.2362e-07 -5.02315e-07 -4.83977e-07 -5.93833e-07 -4.16134e-07 -5.07467e-07 -5.93833e-07 -7.17015e-07 -5.07467e-07 -6.14945e-07 -4.16134e-07 -5.07467e-07 -5.02315e-07 -6.15776e-07 -5.07467e-07 -6.14945e-07 -6.15776e-07 -7.57075e-07 -3.9468e-07 -4.2362e-07 -4.99379e-07 -5.63674e-07 -4.2362e-07 -5.02315e-07 -5.63674e-07 -6.8578e-07 -4.99379e-07 -5.63674e-07 -6.13295e-07 -7.50323e-07 -5.63674e-07 -6.8578e-07 -7.50323e-07 -9.50863e-07 -5.02315e-07 -6.15776e-07 -6.8578e-07 -8.56829e-07 -6.15776e-07 -7.57075e-07 -8.56829e-07 -1.0716e-06 -6.8578e-07 -8.56829e-07 -9.50863e-07 -1.21601e-06 -8.56829e-07 -1.0716e-06 -1.21601e-06 -1.54605e-06 -3.06928e-07 -4.14457e-07 -1.92128e-07 -3.28565e-07 -4.14457e-07 -4.77553e-07 -3.28565e-07 -4.52217e-07 -1.92128e-07 -3.28565e-07 -1.17449e-07 -2.9315e-07 -3.28565e-07 -4.52217e-07 -2.9315e-07 -4.75027e-07 -4.77553e-07 -5.304e-07 -4.52217e-07 -5.8656e-07 -5.304e-07 -6.13295e-07 -5.8656e-07 -7.58997e-07 -4.52217e-07 -5.8656e-07 -4.75027e-07 -6.86841e-07 -5.8656e-07 -7.58997e-07 -6.86841e-07 -9.55277e-07 -1.17449e-07 -2.9315e-07 -7.0812e-08 -2.95077e-07 -2.9315e-07 -4.75027e-07 -2.95077e-07 -5.39484e-07 -7.0812e-08 -2.95077e-07 -4.23304e-08 -3.23571e-07 -2.95077e-07 -5.39484e-07 -3.23571e-07 -6.37609e-07 -4.75027e-07 -6.86841e-07 -5.39484e-07 -8.33633e-07 -6.86841e-07 -9.55277e-07 -8.33633e-07 -1.21002e-06 -5.39484e-07 -8.33633e-07 -6.37609e-07 -1.02344e-06 -8.33633e-07 -1.21002e-06 -1.02344e-06 -1.52416e-06 -6.13295e-07 -7.50323e-07 -7.58997e-07 -9.93009e-07 -7.50323e-07 -9.50863e-07 -9.93009e-07 -1.30483e-06 -7.58997e-07 -9.93009e-07 -9.55277e-07 -1.30661e-06 -9.93009e-07 -1.30483e-06 -1.30661e-06 -1.7645e-06 -9.50863e-07 -1.21601e-06 -1.30483e-06 -1.7052e-06 -1.21601e-06 -1.54605e-06 -1.7052e-06 -2.20158e-06 -1.30483e-06 -1.7052e-06 -1.7645e-06 -2.34911e-06 -1.7052e-06 -2.20158e-06 -2.34911e-06 -3.07731e-06 -9.55277e-07 -1.30661e-06 -1.21002e-06 -1.70296e-06 -1.30661e-06 -1.7645e-06 -1.70296e-06 -2.34704e-06 -1.21002e-06 -1.70296e-06 -1.52416e-06 -2.18724e-06 -1.70296e-06 -2.34704e-06 -2.18724e-06 -3.06369e-06 -1.7645e-06 -2.34911e-06 -2.34704e-06 -3.17546e-06 -2.34911e-06 -3.07731e-06 -3.17546e-06 -4.21886e-06 -2.34704e-06 -3.17546e-06 -3.06369e-06 -4.2062e-06 -3.17546e-06 -4.21886e-06 -4.2062e-06 -5.66685e-06 -7.17015e-07 -8.48689e-07 -6.14945e-07 -7.35234e-07 -8.48689e-07 -9.79031e-07 -7.35234e-07 -8.64865e-07 -6.14945e-07 -7.35234e-07 -7.57075e-07 -9.2304e-07 -7.35234e-07 -8.64865e-07 -9.2304e-07 -1.11367e-06 -9.79031e-07 -1.09338e-06 -8.64865e-07 -1.00192e-06 -1.09338e-06 -1.17278e-06 -1.00192e-06 -1.15011e-06 -8.64865e-07 -1.00192e-06 -1.11367e-06 -1.33478e-06 -1.00192e-06 -1.15011e-06 -1.33478e-06 -1.60422e-06 -7.57075e-07 -9.2304e-07 -1.0716e-06 -1.32839e-06 -9.2304e-07 -1.11367e-06 -1.32839e-06 -1.63009e-06 -1.0716e-06 -1.32839e-06 -1.54605e-06 -1.94269e-06 -1.32839e-06 -1.63009e-06 -1.94269e-06 -2.41253e-06 -1.11367e-06 -1.33478e-06 -1.63009e-06 -1.98873e-06 -1.33478e-06 -1.60422e-06 -1.98873e-06 -2.43508e-06 -1.63009e-06 -1.98873e-06 -2.41253e-06 -2.97465e-06 -1.98873e-06 -2.43508e-06 -2.97465e-06 -3.67536e-06 -1.17278e-06 -1.19794e-06 -1.15011e-06 -1.32633e-06 -1.19794e-06 -1.16373e-06 -1.32633e-06 -1.5715e-06 -1.15011e-06 -1.32633e-06 -1.60422e-06 -1.96189e-06 -1.32633e-06 -1.5715e-06 -1.96189e-06 -2.48367e-06 -1.16373e-06 -1.12297e-06 -1.5715e-06 -1.95648e-06 -1.12297e-06 -1.26374e-06 -1.95648e-06 -2.59696e-06 -1.5715e-06 -1.95648e-06 -2.48367e-06 -3.3043e-06 -1.95648e-06 -2.59696e-06 -3.3043e-06 -4.68877e-06 -1.60422e-06 -1.96189e-06 -2.43508e-06 -3.03464e-06 -1.96189e-06 -2.48367e-06 -3.03464e-06 -3.91255e-06 -2.43508e-06 -3.03464e-06 -3.67536e-06 -4.61289e-06 -3.03464e-06 -3.91255e-06 -4.61289e-06 -5.97392e-06 -2.48367e-06 -3.3043e-06 -3.91255e-06 -5.29345e-06 -3.3043e-06 -4.68877e-06 -5.29345e-06 -7.53728e-06 -3.91255e-06 -5.29345e-06 -5.97392e-06 -8.07758e-06 -5.29345e-06 -7.53728e-06 -8.07758e-06 -1.1413e-05 -1.54605e-06 -1.94269e-06 -2.20158e-06 -2.80115e-06 -1.94269e-06 -2.41253e-06 -2.80115e-06 -3.51591e-06 -2.20158e-06 -2.80115e-06 -3.07731e-06 -3.96455e-06 -2.80115e-06 -3.51591e-06 -3.96455e-06 -5.0311e-06 -2.41253e-06 -2.97465e-06 -3.51591e-06 -4.37399e-06 -2.97465e-06 -3.67536e-06 -4.37399e-06 -5.4411e-06 -3.51591e-06 -4.37399e-06 -5.0311e-06 -6.3171e-06 -4.37399e-06 -5.4411e-06 -6.3171e-06 -7.91171e-06 -3.07731e-06 -3.96455e-06 -4.21886e-06 -5.50604e-06 -3.96455e-06 -5.0311e-06 -5.50604e-06 -7.07062e-06 -4.21886e-06 -5.50604e-06 -5.66685e-06 -7.49655e-06 -5.50604e-06 -7.07062e-06 -7.49655e-06 -9.75102e-06 -5.0311e-06 -6.3171e-06 -7.07062e-06 -8.96924e-06 -6.3171e-06 -7.91171e-06 -8.96924e-06 -1.13186e-05 -7.07062e-06 -8.96924e-06 -9.75102e-06 -1.25109e-05 -8.96924e-06 -1.13186e-05 -1.25109e-05 -1.59248e-05 -3.67536e-06 -4.61289e-06 -5.4411e-06 -6.85559e-06 -4.61289e-06 -5.97392e-06 -6.85559e-06 -8.8766e-06 -5.4411e-06 -6.85559e-06 -7.91171e-06 -1e-05 -6.85559e-06 -8.8766e-06 -1e-05 -1.29249e-05 -5.97392e-06 -8.07758e-06 -8.8766e-06 -1.19363e-05 -8.07758e-06 -1.1413e-05 -1.19363e-05 -1.66713e-05 -8.8766e-06 -1.19363e-05 -1.29249e-05 -1.72455e-05 -1.19363e-05 -1.66713e-05 -1.72455e-05 -2.37536e-05 -7.91171e-06 -1e-05 -1.13186e-05 -1.43549e-05 -1e-05 -1.29249e-05 -1.43549e-05 -1.85086e-05 -1.13186e-05 -1.43549e-05 -1.59248e-05 -2.02787e-05 -1.43549e-05 -1.85086e-05 -2.02787e-05 -2.6079e-05 -1.29249e-05 -1.72455e-05 -1.85086e-05 -2.44654e-05 -1.72455e-05 -2.37536e-05 -2.44654e-05 -3.3156e-05 -1.85086e-05 -2.44654e-05 -2.6079e-05 -3.41071e-05 -2.44654e-05 -3.3156e-05 -3.41071e-05 -4.53731e-05 -4.23304e-08 -3.23571e-07 -2.51652e-08 -3.70435e-07 -3.23571e-07 -6.37609e-07 -3.70435e-07 -7.61495e-07 -2.51652e-08 -3.70435e-07 -1.49057e-08 -4.29076e-07 -3.70435e-07 -7.61495e-07 -4.29076e-07 -9.02921e-07 -6.37609e-07 -1.02344e-06 -7.61495e-07 -1.24961e-06 -1.02344e-06 -1.52416e-06 -1.24961e-06 -1.89247e-06 -7.61495e-07 -1.24961e-06 -9.02921e-07 -1.50233e-06 -1.24961e-06 -1.89247e-06 -1.50233e-06 -2.30309e-06 -1.49057e-08 -4.29076e-07 -8.81283e-09 -4.93582e-07 -4.29076e-07 -9.02921e-07 -4.93582e-07 -1.05263e-06 -8.81283e-09 -4.93582e-07 -5.22135e-09 -5.58121e-07 -4.93582e-07 -1.05263e-06 -5.58121e-07 -1.1999e-06 -9.02921e-07 -1.50233e-06 -1.05263e-06 -1.76811e-06 -1.50233e-06 -2.30309e-06 -1.76811e-06 -2.73655e-06 -1.05263e-06 -1.76811e-06 -1.1999e-06 -2.02952e-06 -1.76811e-06 -2.73655e-06 -2.02952e-06 -3.16545e-06 -1.52416e-06 -2.18724e-06 -1.89247e-06 -2.75594e-06 -2.18724e-06 -3.06369e-06 -2.75594e-06 -3.91421e-06 -1.89247e-06 -2.75594e-06 -2.30309e-06 -3.3945e-06 -2.75594e-06 -3.91421e-06 -3.3945e-06 -4.88134e-06 -3.06369e-06 -4.2062e-06 -3.91421e-06 -5.44828e-06 -4.2062e-06 -5.66685e-06 -5.44828e-06 -7.44291e-06 -3.91421e-06 -5.