# vtk DataFile Version 3.0
#This file was generated by the deal.II library on 2022/11/17 at 0:09:00
ASCII
DATASET UNSTRUCTURED_GRID

POINTS 4096 double
0 0.5 0
0.03125 0.5 0
0 0.53125 0
0.03125 0.53125 0
0.03125 0.5 0
0.0625 0.5 0
0.03125 0.53125 0
0.0625 0.53125 0
0 0.53125 0
0.03125 0.53125 0
0 0.5625 0
0.03125 0.5625 0
0.03125 0.53125 0
0.0625 0.53125 0
0.03125 0.5625 0
0.0625 0.5625 0
0.0625 0.5 0
0.09375 0.5 0
0.0625 0.53125 0
0.09375 0.53125 0
0.09375 0.5 0
0.125 0.5 0
0.09375 0.53125 0
0.125 0.53125 0
0.0625 0.53125 0
0.09375 0.53125 0
0.0625 0.5625 0
0.09375 0.5625 0
0.09375 0.53125 0
0.125 0.53125 0
0.09375 0.5625 0
0.125 0.5625 0
0 0.5625 0
0.03125 0.5625 0
0 0.59375 0
0.03125 0.59375 0
0.03125 0.5625 0
0.0625 0.5625 0
0.03125 0.59375 0
0.0625 0.59375 0
0 0.59375 0
0.03125 0.59375 0
0 0.625 0
0.03125 0.625 0
0.03125 0.59375 0
0.0625 0.59375 0
0.03125 0.625 0
0.0625 0.625 0
0.0625 0.5625 0
0.09375 0.5625 0
0.0625 0.59375 0
0.09375 0.59375 0
0.09375 0.5625 0
0.125 0.5625 0
0.09375 0.59375 0
0.125 0.59375 0
0.0625 0.59375 0
0.09375 0.59375 0
0.0625 0.625 0
0.09375 0.625 0
0.09375 0.59375 0
0.125 0.59375 0
0.09375 0.625 0
0.125 0.625 0
0.125 0.5 0
0.15625 0.5 0
0.125 0.53125 0
0.15625 0.53125 0
0.15625 0.5 0
0.1875 0.5 0
0.15625 0.53125 0
0.1875 0.53125 0
0.125 0.53125 0
0.15625 0.53125 0
0.125 0.5625 0
0.15625 0.5625 0
0.15625 0.53125 0
0.1875 0.53125 0
0.15625 0.5625 0
0.1875 0.5625 0
0.1875 0.5 0
0.21875 0.5 0
0.1875 0.53125 0
0.21875 0.53125 0
0.21875 0.5 0
0.25 0.5 0
0.21875 0.53125 0
0.25 0.53125 0
0.1875 0.53125 0
0.21875 0.53125 0
0.1875 0.5625 0
0.21875 0.5625 0
0.21875 0.53125 0
0.25 0.53125 0
0.21875 0.5625 0
0.25 0.5625 0
0.125 0.5625 0
0.15625 0.5625 0
0.125 0.59375 0
0.15625 0.59375 0
0.15625 0.5625 0
0.1875 0.5625 0
0.15625 0.59375 0
0.1875 0.59375 0
0.125 0.59375 0
0.15625 0.59375 0
0.125 0.625 0
0.15625 0.625 0
0.15625 0.59375 0
0.1875 0.59375 0
0.15625 0.625 0
0.1875 0.625 0
0.1875 0.5625 0
0.21875 0.5625 0
0.1875 0.59375 0
0.21875 0.59375 0
0.21875 0.5625 0
0.25 0.5625 0
0.21875 0.59375 0
0.25 0.59375 0
0.1875 0.59375 0
0.21875 0.59375 0
0.1875 0.625 0
0.21875 0.625 0
0.21875 0.59375 0
0.25 0.59375 0
0.21875 0.625 0
0.25 0.625 0
0 0.625 0
0.03125 0.625 0
0 0.65625 0
0.03125 0.65625 0
0.03125 0.625 0
0.0625 0.625 0
0.03125 0.65625 0
0.0625 0.65625 0
0 0.65625 0
0.03125 0.65625 0
0 0.6875 0
0.03125 0.6875 0
0.03125 0.65625 0
0.0625 0.65625 0
0.03125 0.6875 0
0.0625 0.6875 0
0.0625 0.625 0
0.09375 0.625 0
0.0625 0.65625 0
0.09375 0.65625 0
0.09375 0.625 0
0.125 0.625 0
0.09375 0.65625 0
0.125 0.65625 0
0.0625 0.65625 0
0.09375 0.65625 0
0.0625 0.6875 0
0.09375 0.6875 0
0.09375 0.65625 0
0.125 0.65625 0
0.09375 0.6875 0
0.125 0.6875 0
0 0.6875 0
0.03125 0.6875 0
0 0.71875 0
0.03125 0.71875 0
0.03125 0.6875 0
0.0625 0.6875 0
0.03125 0.71875 0
0.0625 0.71875 0
0 0.71875 0
0.03125 0.71875 0
0 0.75 0
0.03125 0.75 0
0.03125 0.71875 0
0.0625 0.71875 0
0.03125 0.75 0
0.0625 0.75 0
0.0625 0.6875 0
0.09375 0.6875 0
0.0625 0.71875 0
0.09375 0.71875 0
0.09375 0.6875 0
0.125 0.6875 0
0.09375 0.71875 0
0.125 0.71875 0
0.0625 0.71875 0
0.09375 0.71875 0
0.0625 0.75 0
0.09375 0.75 0
0.09375 0.71875 0
0.125 0.71875 0
0.09375 0.75 0
0.125 0.75 0
0.125 0.625 0
0.15625 0.625 0
0.125 0.65625 0
0.15625 0.65625 0
0.15625 0.625 0
0.1875 0.625 0
0.15625 0.65625 0
0.1875 0.65625 0
0.125 0.65625 0
0.15625 0.65625 0
0.125 0.6875 0
0.15625 0.6875 0
0.15625 0.65625 0
0.1875 0.65625 0
0.15625 0.6875 0
0.1875 0.6875 0
0.1875 0.625 0
0.21875 0.625 0
0.1875 0.65625 0
0.21875 0.65625 0
0.21875 0.625 0
0.25 0.625 0
0.21875 0.65625 0
0.25 0.65625 0
0.1875 0.65625 0
0.21875 0.65625 0
0.1875 0.6875 0
0.21875 0.6875 0
0.21875 0.65625 0
0.25 0.65625 0
0.21875 0.6875 0
0.25 0.6875 0
0.125 0.6875 0
0.15625 0.6875 0
0.125 0.71875 0
0.15625 0.71875 0
0.15625 0.6875 0
0.1875 0.6875 0
0.15625 0.71875 0
0.1875 0.71875 0
0.125 0.71875 0
0.15625 0.71875 0
0.125 0.75 0
0.15625 0.75 0
0.15625 0.71875 0
0.1875 0.71875 0
0.15625 0.75 0
0.1875 0.75 0
0.1875 0.6875 0
0.21875 0.6875 0
0.1875 0.71875 0
0.21875 0.71875 0
0.21875 0.6875 0
0.25 0.6875 0
0.21875 0.71875 0
0.25 0.71875 0
0.1875 0.71875 0
0.21875 0.71875 0
0.1875 0.75 0
0.21875 0.75 0
0.21875 0.71875 0
0.25 0.71875 0
0.21875 0.75 0
0.25 0.75 0
0.25 0.5 0
0.28125 0.5 0
0.25 0.53125 0
0.28125 0.53125 0
0.28125 0.5 0
0.3125 0.5 0
0.28125 0.53125 0
0.3125 0.53125 0
0.25 0.53125 0
0.28125 0.53125 0
0.25 0.5625 0
0.28125 0.5625 0
0.28125 0.53125 0
0.3125 0.53125 0
0.28125 0.5625 0
0.3125 0.5625 0
0.3125 0.5 0
0.34375 0.5 0
0.3125 0.53125 0
0.34375 0.53125 0
0.34375 0.5 0
0.375 0.5 0
0.34375 0.53125 0
0.375 0.53125 0
0.3125 0.53125 0
0.34375 0.53125 0
0.3125 0.5625 0
0.34375 0.5625 0
0.34375 0.53125 0
0.375 0.53125 0
0.34375 0.5625 0
0.375 0.5625 0
0.25 0.5625 0
0.28125 0.5625 0
0.25 0.59375 0
0.28125 0.59375 0
0.28125 0.5625 0
0.3125 0.5625 0
0.28125 0.59375 0
0.3125 0.59375 0
0.25 0.59375 0
0.28125 0.59375 0
0.25 0.625 0
0.28125 0.625 0
0.28125 0.59375 0
0.3125 0.59375 0
0.28125 0.625 0
0.3125 0.625 0
0.3125 0.5625 0
0.34375 0.5625 0
0.3125 0.59375 0
0.34375 0.59375 0
0.34375 0.5625 0
0.375 0.5625 0
0.34375 0.59375 0
0.375 0.59375 0
0.3125 0.59375 0
0.34375 0.59375 0
0.3125 0.625 0
0.34375 0.625 0
0.34375 0.59375 0
0.375 0.59375 0
0.34375 0.625 0
0.375 0.625 0
0.375 0.5 0
0.40625 0.5 0
0.375 0.53125 0
0.40625 0.53125 0
0.40625 0.5 0
0.4375 0.5 0
0.40625 0.53125 0
0.4375 0.53125 0
0.375 0.53125 0
0.40625 0.53125 0
0.375 0.5625 0
0.40625 0.5625 0
0.40625 0.53125 0
0.4375 0.53125 0
0.40625 0.5625 0
0.4375 0.5625 0
0.4375 0.5 0
0.46875 0.5 0
0.4375 0.53125 0
0.46875 0.53125 0
0.46875 0.5 0
0.5 0.5 0
0.46875 0.53125 0
0.5 0.53125 0
0.4375 0.53125 0
0.46875 0.53125 0
0.4375 0.5625 0
0.46875 0.5625 0
0.46875 0.53125 0
0.5 0.53125 0
0.46875 0.5625 0
0.5 0.5625 0
0.375 0.5625 0
0.40625 0.5625 0
0.375 0.59375 0
0.40625 0.59375 0
0.40625 0.5625 0
0.4375 0.5625 0
0.40625 0.59375 0
0.4375 0.59375 0
0.375 0.59375 0
0.40625 0.59375 0
0.375 0.625 0
0.40625 0.625 0
0.40625 0.59375 0
0.4375 0.59375 0
0.40625 0.625 0
0.4375 0.625 0
0.4375 0.5625 0
0.46875 0.5625 0
0.4375 0.59375 0
0.46875 0.59375 0
0.46875 0.5625 0
0.5 0.5625 0
0.46875 0.59375 0
0.5 0.59375 0
0.4375 0.59375 0
0.46875 0.59375 0
0.4375 0.625 0
0.46875 0.625 0
0.46875 0.59375 0
0.5 0.59375 0
0.46875 0.625 0
0.5 0.625 0
0.25 0.625 0
0.28125 0.625 0
0.25 0.65625 0
0.28125 0.65625 0
0.28125 0.625 0
0.3125 0.625 0
0.28125 0.65625 0
0.3125 0.65625 0
0.25 0.65625 0
0.28125 0.65625 0
0.25 0.6875 0
0.28125 0.6875 0
0.28125 0.65625 0
0.3125 0.65625 0
0.28125 0.6875 0
0.3125 0.6875 0
0.3125 0.625 0
0.34375 0.625 0
0.3125 0.65625 0
0.34375 0.65625 0
0.34375 0.625 0
0.375 0.625 0
0.34375 0.65625 0
0.375 0.65625 0
0.3125 0.65625 0
0.34375 0.65625 0
0.3125 0.6875 0
0.34375 0.6875 0
0.34375 0.65625 0
0.375 0.65625 0
0.34375 0.6875 0
0.375 0.6875 0
0.25 0.6875 0
0.28125 0.6875 0
0.25 0.71875 0
0.28125 0.71875 0
0.28125 0.6875 0
0.3125 0.6875 0
0.28125 0.71875 0
0.3125 0.71875 0
0.25 0.71875 0
0.28125 0.71875 0
0.25 0.75 0
0.28125 0.75 0
0.28125 0.71875 0
0.3125 0.71875 0
0.28125 0.75 0
0.3125 0.75 0
0.3125 0.6875 0
0.34375 0.6875 0
0.3125 0.71875 0
0.34375 0.71875 0
0.34375 0.6875 0
0.375 0.6875 0
0.34375 0.71875 0
0.375 0.71875 0
0.3125 0.71875 0
0.34375 0.71875 0
0.3125 0.75 0
0.34375 0.75 0
0.34375 0.71875 0
0.375 0.71875 0
0.34375 0.75 0
0.375 0.75 0
0.375 0.625 0
0.40625 0.625 0
0.375 0.65625 0
0.40625 0.65625 0
0.40625 0.625 0
0.4375 0.625 0
0.40625 0.65625 0
0.4375 0.65625 0
0.375 0.65625 0
0.40625 0.65625 0
0.375 0.6875 0
0.40625 0.6875 0
0.40625 0.65625 0
0.4375 0.65625 0
0.40625 0.6875 0
0.4375 0.6875 0
0.4375 0.625 0
0.46875 0.625 0
0.4375 0.65625 0
0.46875 0.65625 0
0.46875 0.625 0
0.5 0.625 0
0.46875 0.65625 0
0.5 0.65625 0
0.4375 0.65625 0
0.46875 0.65625 0
0.4375 0.6875 0
0.46875 0.6875 0
0.46875 0.65625 0
0.5 0.65625 0
0.46875 0.6875 0
0.5 0.6875 0
0.375 0.6875 0
0.40625 0.6875 0
0.375 0.71875 0
0.40625 0.71875 0
0.40625 0.6875 0
0.4375 0.6875 0
0.40625 0.71875 0
0.4375 0.71875 0
0.375 0.71875 0
0.40625 0.71875 0
0.375 0.75 0
0.40625 0.75 0
0.40625 0.71875 0
0.4375 0.71875 0
0.40625 0.75 0
0.4375 0.75 0
0.4375 0.6875 0
0.46875 0.6875 0
0.4375 0.71875 0
0.46875 0.71875 0
0.46875 0.6875 0
0.5 0.6875 0
0.46875 0.71875 0
0.5 0.71875 0
0.4375 0.71875 0
0.46875 0.71875 0
0.4375 0.75 0
0.46875 0.75 0
0.46875 0.71875 0
0.5 0.71875 0
0.46875 0.75 0
0.5 0.75 0
0 0.75 0
0.03125 0.75 0
0 0.78125 0
0.03125 0.78125 0
0.03125 0.75 0
0.0625 0.75 0
0.03125 0.78125 0
0.0625 0.78125 0
0 0.78125 0
0.03125 0.78125 0
0 0.8125 0
0.03125 0.8125 0
0.03125 0.78125 0
0.0625 0.78125 0
0.03125 0.8125 0
0.0625 0.8125 0
0.0625 0.75 0
0.09375 0.75 0
0.0625 0.78125 0
0.09375 0.78125 0
0.09375 0.75 0
0.125 0.75 0
0.09375 0.78125 0
0.125 0.78125 0
0.0625 0.78125 0
0.09375 0.78125 0
0.0625 0.8125 0
0.09375 0.8125 0
0.09375 0.78125 0
0.125 0.78125 0
0.09375 0.8125 0
0.125 0.8125 0
0 0.8125 0
0.03125 0.8125 0
0 0.84375 0
0.03125 0.84375 0
0.03125 0.8125 0
0.0625 0.8125 0
0.03125 0.84375 0
0.0625 0.84375 0
0 0.84375 0
0.03125 0.84375 0
0 0.875 0
0.03125 0.875 0
0.03125 0.84375 0
0.0625 0.84375 0
0.03125 0.875 0
0.0625 0.875 0
0.0625 0.8125 0
0.09375 0.8125 0
0.0625 0.84375 0
0.09375 0.84375 0
0.09375 0.8125 0
0.125 0.8125 0
0.09375 0.84375 0
0.125 0.84375 0
0.0625 0.84375 0
0.09375 0.84375 0
0.0625 0.875 0
0.09375 0.875 0
0.09375 0.84375 0
0.125 0.84375 0
0.09375 0.875 0
0.125 0.875 0
0.125 0.75 0
0.15625 0.75 0
0.125 0.78125 0
0.15625 0.78125 0
0.15625 0.75 0
0.1875 0.75 0
0.15625 0.78125 0
0.1875 0.78125 0
0.125 0.78125 0
0.15625 0.78125 0
0.125 0.8125 0
0.15625 0.8125 0
0.15625 0.78125 0
0.1875 0.78125 0
0.15625 0.8125 0
0.1875 0.8125 0
0.1875 0.75 0
0.21875 0.75 0
0.1875 0.78125 0
0.21875 0.78125 0
0.21875 0.75 0
0.25 0.75 0
0.21875 0.78125 0
0.25 0.78125 0
0.1875 0.78125 0
0.21875 0.78125 0
0.1875 0.8125 0
0.21875 0.8125 0
0.21875 0.78125 0
0.25 0.78125 0
0.21875 0.8125 0
0.25 0.8125 0
0.125 0.8125 0
0.15625 0.8125 0
0.125 0.84375 0
0.15625 0.84375 0
0.15625 0.8125 0
[...]
POINT_DATA 4096
SCALARS x_dis double 1
LOOKUP_TABLE default
6.60229e-05 5.33728e-05 8.14382e-05 6.6651e-05 5.33728e-05 4.33834e-05 6.6651e-05 5.47112e-05 8.14382e-05 6.6651e-05 9.92325e-05 8.22722e-05 6.6651e-05 5.47112e-05 8.22722e-05 6.8249e-05 4.33834e-05 3.5605e-05 5.47112e-05 4.52193e-05 3.5605e-05 2.95527e-05 4.52193e-05 3.77003e-05 5.47112e-05 4.52193e-05 6.8249e-05 5.68435e-05 4.52193e-05 3.77003e-05 5.68435e-05 4.76234e-05 9.92325e-05 8.22722e-05 0.000119418 0.000100351 8.22722e-05 6.8249e-05 0.000100351 8.41783e-05 0.000119418 0.000100351 0.000141882 0.000120891 0.000100351 8.41783e-05 0.000120891 0.000102586 6.8249e-05 5.68435e-05 8.41783e-05 7.0691e-05 5.68435e-05 4.76234e-05 7.0691e-05 5.95399e-05 8.41783e-05 7.0691e-05 0.000102586 8.68983e-05 7.0691e-05 5.95399e-05 8.68983e-05 7.36072e-05 2.95527e-05 2.47745e-05 3.77003e-05 3.16816e-05 2.47745e-05 2.0892e-05 3.16816e-05 2.67481e-05 3.77003e-05 3.16816e-05 4.76234e-05 4.01221e-05 3.16816e-05 2.67481e-05 4.01221e-05 3.39033e-05 2.0892e-05 1.76167e-05 2.67481e-05 2.25695e-05 1.76167e-05 1.47482e-05 2.25695e-05 1.89055e-05 2.67481e-05 2.25695e-05 3.39033e-05 2.86006e-05 2.25695e-05 1.89055e-05 2.86006e-05 2.39311e-05 4.76234e-05 4.01221e-05 5.95399e-05 5.03001e-05 4.01221e-05 3.39033e-05 5.03001e-05 4.254e-05 5.95399e-05 5.03001e-05 7.36072e-05 6.23736e-05 5.03001e-05 4.254e-05 6.23736e-05 5.28059e-05 3.39033e-05 2.86006e-05 4.254e-05 3.58722e-05 2.86006e-05 2.39311e-05 3.58722e-05 2.9977e-05 4.254e-05 3.58722e-05 5.28059e-05 4.45196e-05 3.58722e-05 2.9977e-05 4.45196e-05 3.71746e-05 0.000141882 0.000120891 0.000166335 0.000143719 0.000120891 0.000102586 0.000143719 0.000123393 0.000166335 0.000143719 0.000192253 0.000168408 0.000143719 0.000123393 0.000168408 0.00014627 0.000102586 8.68983e-05 0.000123393 0.000105457 8.68983e-05 7.36072e-05 0.000105457 8.98623e-05 0.000123393 0.000105457 0.00014627 0.000126131 0.000105457 8.98623e-05 0.000126131 0.000108148 0.000192253 0.000168408 0.000218832 0.000194206 0.000168408 0.00014627 0.000194206 0.000170558 0.000218832 0.000194206 0.000244995 0.000220026 0.000194206 0.000170558 0.000220026 0.000195249 0.00014627 0.000126131 0.000170558 0.00014838 0.000126131 0.000108148 0.00014838 0.000128043 0.000170558 0.00014838 0.000195249 0.000171328 0.00014838 0.000128043 0.000171328 0.000148829 7.36072e-05 6.23736e-05 8.98623e-05 7.64035e-05 6.23736e-05 5.28059e-05 7.64035e-05 6.47705e-05 8.98623e-05 7.64035e-05 0.000108148 9.22915e-05 7.64035e-05 6.47705e-05 9.22915e-05 7.83752e-05 5.28059e-05 4.45196e-05 6.47705e-05 5.46137e-05 4.45196e-05 3.71746e-05 5.46137e-05 4.55955e-05 6.47705e-05 5.46137e-05 7.83752e-05 6.61198e-05 5.46137e-05 4.55955e-05 6.61198e-05 5.52173e-05 0.000108148 9.22915e-05 0.000128043 0.000109721 9.22915e-05 7.83752e-05 0.000109721 9.33846e-05 0.000128043 0.000109721 0.000148829 0.000128123 0.000109721 9.33846e-05 0.000128123 0.000109358 7.83752e-05 6.61198e-05 9.33846e-05 7.88601e-05 6.61198e-05 5.52173e-05 7.88601e-05 6.5898e-05 9.33846e-05 7.88601e-05 0.000109358 9.24917e-05 7.88601e-05 6.5898e-05 9.24917e-05 7.73638e-05 1.47482e-05 1.21652e-05 1.89055e-05 1.55977e-05 1.21652e-05 9.8164e-06 1.55977e-05 1.25559e-05 1.89055e-05 1.55977e-05 2.39311e-05 1.96877e-05 1.55977e-05 1.25559e-05 1.96877e-05 1.57188e-05 9.8164e-06 7.72087e-06 1.25559e-05 9.74461e-06 7.72087e-06 5.98438e-06 9.74461e-06 7.16839e-06 1.25559e-05 9.74461e-06 1.57188e-05 1.18945e-05 9.74461e-06 7.16839e-06 1.18945e-05 8.04843e-06 2.39311e-05 1.96877e-05 2.9977e-05 2.46011e-05 1.96877e-05 1.57188e-05 2.46011e-05 1.9535e-05 2.9977e-05 2.46011e-05 3.71746e-05 3.04848e-05 2.46011e-05 1.9535e-05 3.04848e-05 2.42033e-05 1.57188e-05 1.18945e-05 1.9535e-05 1.45729e-05 1.18945e-05 8.04843e-06 1.45729e-05 9.45451e-06 1.9535e-05 1.45729e-05 2.42033e-05 1.8094e-05 1.45729e-05 9.45451e-06 1.8094e-05 1.19012e-05 5.98438e-06 4.86363e-06 7.16839e-06 4.82786e-06 4.86363e-06 4.90228e-06 4.82786e-06 2.57143e-06 7.16839e-06 4.82786e-06 8.04843e-06 3.85849e-06 4.82786e-06 2.57143e-06 3.85849e-06 -1.44762e-06 4.90228e-06 7.99509e-06 2.57143e-06 -1.18879e-06 7.99509e-06 1.46003e-05 -1.18879e-06 -1.333e-05 2.57143e-06 -1.18879e-06 -1.44762e-06 -9.57645e-06 -1.18879e-06 -1.333e-05 -9.57645e-06 -1.85115e-05 8.04843e-06 3.85849e-06 9.45451e-06 3.79081e-06 3.85849e-06 -1.44762e-06 3.79081e-06 -2.96392e-06 9.45451e-06 3.79081e-06 1.19012e-05 5.35252e-06 3.79081e-06 -2.96392e-06 5.35252e-06 -1.66074e-06 -1.44762e-06 -9.57645e-06 -2.96392e-06 -1.06724e-05 -9.57645e-06 -1.85115e-05 -1.06724e-05 -1.79131e-05 -2.96392e-06 -1.06724e-05 -1.66074e-06 -8.82013e-06 -1.06724e-05 -1.79131e-05 -8.82013e-06 -1.51997e-05 3.71746e-05 3.04848e-05 4.55955e-05 3.7416e-05 3.04848e-05 2.42033e-05 3.7416e-05 2.98138e-05 4.55955e-05 3.7416e-05 5.52173e-05 4.53745e-05 3.7416e-05 2.98138e-05 4.53745e-05 3.63316e-05 2.42033e-05 1.8094e-05 2.98138e-05 2.25545e-05 1.8094e-05 1.19012e-05 2.25545e-05 1.54258e-05 2.98138e-05 2.25545e-05 3.63316e-05 2.78651e-05 2.25545e-05 1.54258e-05 2.78651e-05 1.97954e-05 5.52173e-05 4.53745e-05 6.5898e-05 5.42329e-05 4.53745e-05 3.63316e-05 5.42329e-05 4.36172e-05 6.5898e-05 5.42329e-05 7.73638e-05 6.37586e-05 5.42329e-05 4.36172e-05 6.37586e-05 5.14526e-05 3.63316e-05 2.78651e-05 4.36172e-05 3.38365e-05 2.78651e-05 1.97954e-05 3.38365e-05 2.47175e-05 4.36172e-05 3.38365e-05 5.14526e-05 4.02389e-05 3.38365e-05 2.47175e-05 4.02389e-05 2.99366e-05 1.19012e-05 5.35252e-06 1.54258e-05 8.27713e-06 5.35252e-06 -1.66074e-06 8.27713e-06 1.10874e-06 1.54258e-05 8.27713e-06 1.97954e-05 1.20098e-05 8.27713e-06 1.10874e-06 1.20098e-05 4.50325e-06 -1.66074e-06 -8.82013e-06 1.10874e-06 -5.82081e-06 -8.82013e-06 -1.51997e-05 -5.82081e-06 -1.20333e-05 1.10874e-06 -5.82081e-06 4.50325e-06 -2.60268e-06 -5.82081e-06 -1.20333e-05 -2.60268e-06 -9.10799e-06 1.97954e-05 1.20098e-05 2.47175e-05 1.61395e-05 1.20098e-05 4.50325e-06 1.61395e-05 8.04424e-06 2.47175e-05 1.61395e-05 2.99366e-05 2.03946e-05 1.61395e-05 8.04424e-06 2.03946e-05 1.14934e-05 4.50325e-06 -2.60268e-06 8.04424e-06 4.31484e-07 -2.60268e-06 -9.10799e-06 4.31484e-07 -6.67918e-06 8.04424e-06 4.31484e-07 1.14934e-05 3.1341e-06 4.31484e-07 -6.67918e-06 3.1341e-06 -4.78561e-06 0.000244995 0.000220026 0.000269504 0.000244555 0.000220026 0.000195249 0.000244555 0.000219075 0.000269504 0.000244555 0.000291197 0.000266502 0.000244555 0.000219075 0.000266502 0.000240738 0.000195249 0.000171328 0.000219075 0.000193836 0.000171328 0.000148829 0.000193836 0.000169534 0.000219075 0.000193836 0.000240738 0.000214683 0.000193836 0.000169534 0.000214683 0.00018907 0.000291197 0.000266502 0.000309268 0.000284918 0.000266502 0.000240738 0.000284918 0.000259211 0.000309268 0.000284918 0.000323428 0.000299403 0.000284918 0.000259211 0.000299403 0.000273957 0.000240738 0.000214683 0.000259211 0.000232823 0.000214683 0.00018907 0.000232823 0.000206432 0.000259211 0.000232823 0.000273957 0.000247603 0.000232823 0.000206432 0.000247603 0.000220898 0.000148829 0.000128123 0.000169534 0.000146702 0.000128123 0.000109358 0.000146702 0.000125658 0.000169534 0.000146702 0.00018907 0.000164528 0.000146702 0.000125658 0.000164528 0.000141517 0.000109358 9.24917e-05 0.000125658 0.000106511 9.24917e-05 7.73638e-05 0.000106511 8.9213e-05 0.000125658 0.000106511 0.000141517 0.000120293 0.000106511 8.9213e-05 0.000120293 0.000100942 0.00018907 0.000164528 0.000206432 0.000180687 0.000164528 0.000141517 0.000180687 0.000156134 0.000206432 0.000180687 0.000220898 0.000194441 0.000180687 0.000156134 0.000194441 0.00016881 0.000141517 0.000120293 0.000156134 0.000133163 0.000120293 0.000100942 0.000133163 0.000111993 0.000156134 0.000133163 0.00016881 0.000144489 0.000133163 0.000111993 0.000144489 0.000121823 0.000323428 0.000299403 0.000333852 0.00031007 0.000299403 0.000273957 0.00031007 0.000284943 0.000333852 0.00031007 0.000340932 0.000317303 0.00031007 0.000284943 0.000317303 0.00029244 0.000273957 0.000247603 0.000284943 0.000258813 0.000247603 0.000220898 0.000258813 0.000232102 0.000284943 0.000258813 0.00029244 0.000266562 0.000258813 0.000232102 0.000266562 0.000239976 0.000340932 0.000317303 0.000345034 0.000321482 0.000317303 0.00029244 0.000321482 0.000296781 0.000345034 0.000321482 0.000346378 0.00032285 0.000321482 0.000296781 0.00032285 0.000298202 0.00029244 0.000266562 0.000296781 0.000271082 0.000266562 0.000239976 0.000271082 0.00024462 0.000296781 0.000271082 0.000298202 0.000272565 0.000271082 0.00024462 0.000272565 0.000246151 0.000220898 0.000194441 0.000232102 0.000205319 0.000194441 0.00016881 0.000205319 0.000179025 0.000232102 0.000205319 0.000239976 0.000213101 0.000205319 0.000179025 0.000213101 0.000186455 0.00016881 0.000144489 0.000179025 0.000153757 0.000144489 0.000121823 0.000153757 0.000129956 0.000179025 0.000153757 0.000186455 0.000160591 0.000153757 0.000129956 0.000160591 0.000136017 0.000239976 0.000213101 0.00024462 0.000217749 0.000213101 0.000186455 0.000217749 0.000190947 0.00024462 0.000217749 0.000246151 0.000219292 0.000217749 0.000190947 0.000219292 0.000192447 0.000186455 0.000160591 0.000190947 0.000164766 0.000160591 0.000136017 0.000164766 0.000139748 0.000190947 0.000164766 0.000192447 0.000166169 0.000164766 0.000139748 0.000166169 0.000141007 7.73638e-05 6.37586e-05 8.9213e-05 7.36229e-05 6.37586e-05 5.14526e-05 7.36229e-05 5.95577e-05 8.9213e-05 7.36229e-05 0.000100942 8.34203e-05 7.36229e-05 5.95577e-05 8.34203e-05 6.76046e-05 5.14526e-05 4.02389e-05 5.95577e-05 4.68241e-05 4.02389e-05 2.99366e-05 4.68241e-05 3.52311e-05 5.95577e-05 4.68241e-05 6.76046e-05 5.33281e-05 4.68241e-05 3.52311e-05 5.33281e-05 4.03973e-05 0.000100942 8.34203e-05 0.000111993 9.26972e-05 8.34203e-05 6.76046e-05 9.26972e-05 7.52314e-05 0.000111993 9.26972e-05 0.000121823 0.000101002 9.26972e-05 7.52314e-05 0.000101002 8.20763e-05 6.76046e-05 5.33281e-05 7.52314e-05 5.94708e-05 5.33281e-05 4.03973e-05 5.94708e-05 4.52307e-05 7.52314e-05 5.94708e-05 8.20763e-05 6.49753e-05 5.94708e-05 4.52307e-05 6.49753e-05 4.95347e-05 2.99366e-05 2.03946e-05 3.52311e-05 2.45942e-05 2.03946e-05 1.14934e-05 2.45942e-05 1.47354e-05 3.52311e-05 2.45942e-05 4.03973e-05 2.85984e-05 2.45942e-05 1.47354e-05 2.85984e-05 1.77051e-05 1.14934e-05 3.1341e-06 1.47354e-05 5.47709e-06 3.1341e-06 -4.78561e-06 5.47709e-06 -3.37151e-06 1.47354e-05 5.47709e-06 1.77051e-05 7.47714e-06 5.47709e-06 -3.37151e-06 7.47714e-06 -2.34669e-06 4.03973e-05 2.85984e-05 4.52307e-05 3.228e-05 2.85984e-05 1.77051e-05 3.228e-05 2.03533e-05 4.52307e-05 3.228e-05 4.95347e-05 3.55166e-05 3.228e-05 2.03533e-05 3.55166e-05 2.26283e-05 1.77051e-05 7.47714e-06 2.03533e-05 9.15774e-06 7.47714e-06 -2.34669e-06 9.15774e-06 -1.62425e-06 2.03533e-05 9.15774e-06 2.26283e-05 1.05357e-05 9.15774e-06 -1.62425e-06 1.05357e-05 -1.12552e-06 0.000121823 0.000101002 0.000129956 0.000107924 0.000101002 8.20763e-05 0.000107924 8.77998e-05 0.000129956 0.000107924 0.000136017 0.000113116 0.000107924 8.77998e-05 0.000113116 9.21093e-05 8.20763e-05 6.49753e-05 8.77998e-05 6.95763e-05 6.49753e-05 4.95347e-05 6.95763e-05 5.31181e-05 8.77998e-05 6.95763e-05 9.21093e-05 7.30436e-05 6.95763e-05 5.31181e-05 7.30436e-05 5.5813e-05 0.000136017 0.000113116 0.000139748 0.000116331 0.000113116 9.21093e-05 0.000116331 9.4785e-05 0.000139748 0.000116331 0.000141007 0.000117418 0.000116331 9.4785e-05 0.000117418 9.56916e-05 9.21093e-05 7.30436e-05 9.4785e-05 7.51984e-05 7.30436e-05 5.5813e-05 7.51984e-05 5.74866e-05 9.4785e-05 7.51984e-05 9.56916e-05 7.59292e-05 7.51984e-05 5.74866e-05 7.59292e-05 5.8054e-05 4.95347e-05 3.55166e-05 5.31181e-05 3.81886e-05 3.55166e-05 2.26283e-05 3.81886e-05 2.44758e-05 5.31181e-05 3.81886e-05 5.5813e-05 4.0187e-05 3.81886e-05 2.44758e-05 4.0187e-05 2.58427e-05 2.26283e-05 1.05357e-05 2.44758e-05 1.16151e-05 1.05357e-05 -1.12552e-06 1.16151e-05 -7.93505e-07 2.44758e-05 1.16151e-05 2.58427e-05 1.23942e-05 1.16151e-05 -7.93505e-07 1.23942e-05 -5.84308e-07 5.5813e-05 4.0187e-05 5.74866e-05 4.14245e-05 4.0187e-05 2.58427e-05 4.14245e-05 2.66835e-05 5.74866e-05 4.14245e-05 5.8054e-05 4.18435e-05 4.14245e-05 2.66835e-05 4.18435e-05 2.69675e-05 2.58427e-05 1.23942e-05 2.66835e-05 1.28659e-05 1.23942e-05 -5.84308e-07 1.28659e-05 -4.69786e-07 2.66835e-05 1.28659e-05 2.69675e-05 1.30242e-05 1.28659e-05 -4.69786e-07 1.30242e-05 -4.33389e-07 1.46003e-05 1.35035e-05 -1.333e-05 -1.86049e-05 1.35035e-05 4.21832e-06 -1.86049e-05 -1.36101e-05 -1.333e-05 -1.86049e-05 -1.85115e-05 -2.32232e-05 -1.86049e-05 -1.36101e-05 -2.32232e-05 -2.22564e-05 4.21832e-06 -4.94044e-06 -1.36101e-05 -1.31088e-05 -4.94044e-06 -1.1836e-05 -1.31088e-05 -1.46278e-05 -1.36101e-05 -1.31088e-05 -2.22564e-05 -1.96231e-05 -1.31088e-05 -1.46278e-05 -1.96231e-05 -1.87603e-05 -1.85115e-05 -2.32232e-05 -1.79131e-05 -2.23534e-05 -2.32232e-05 -2.22564e-05 -2.23534e-05 -2.33622e-05 -1.79131e-05 -2.23534e-05 -1.51997e-05 -1.9782e-05 -2.23534e-05 -2.33622e-05 -1.9782e-05 -2.23177e-05 -2.22564e-05 -1.96231e-05 -2.33622e-05 -2.26632e-05 -1.96231e-05 -1.87603e-05 -2.26632e-05 -2.21542e-05 -2.33622e-05 -2.26632e-05 -2.23177e-05 -2.35705e-05 -2.26632e-05 -2.21542e-05 -2.35705e-05 -2.46715e-05 -1.1836e-05 -1.71199e-05 -1.46278e-05 -1.69496e-05 -1.71199e-05 -2.12718e-05 -1.69496e-05 -1.95307e-05 -1.46278e-05 -1.69496e-05 -1.87603e-05 -1.94068e-05 -1.69496e-05 -1.95307e-05 -1.94068e-05 -2.10808e-05 -2.12718e-05 -2.46302e-05 -1.95307e-05 -2.21474e-05 -2.46302e-05 -2.73344e-05 -2.21474e-05 -2.46986e-05 -1.95307e-05 -2.21474e-05 -2.10808e-05 -2.34116e-05 -2.21474e-05 -2.46986e-05 -2.34116e-05 -2.61863e-05 -1.87603e-05 -1.94068e-05 -2.21542e-05 -2.27816e-05 -1.94068e-05 -2.10808e-05 -2.27816e-05 -2.45357e-05 -2.21542e-05 -2.27816e-05 -2.46715e-05 -2.64046e-05 -2.27816e-05 -2.45357e-05 -2.64046e-05 -2.90958e-05 -2.10808e-05 -2.34116e-05 -2.45357e-05 -2.72266e-05 -2.34116e-05 -2.61863e-05 -2.72266e-05 -3.06936e-05 -2.45357e-05 -2.72266e-05 -2.90958e-05 -3.27765e-05 -2.72266e-05 -3.06936e-05 -3.27765e-05 -3.74158e-05 -1.51997e-05 -1.9782e-05 -1.20333e-05 -1.70864e-05 -1.9782e-05 -2.23177e-05 -1.70864e-05 -2.09236e-05 -1.20333e-05 -1.70864e-05 -9.10799e-06 -1.48688e-05 -1.70864e-05 -2.09236e-05 -1.48688e-05 -1.99399e-05 -2.23177e-05 -2.35705e-05 -2.09236e-05 -2.39697e-05 -2.35705e-05 -2.46715e-05 -2.39697e-05 -2.68843e-05 -2.09236e-05 -2.39697e-05 -1.99399e-05 -2.46132e-05 -2.39697e-05 -2.68843e-05 -2.46132e-05 -2.93209e-05 -9.10799e-06 -1.48688e-05 -6.67918e-06 -1.33133e-05 -1.48688e-05 -1.99399e-05 -1.33133e-05 -1.96022e-05 -6.67918e-06 -1.33133e-05 -4.78561e-06 -1.24017e-05 -1.33133e-05 -1.96022e-05 -1.24017e-05 -1.99065e-05 -1.99399e-05 -2.46132e-05 -1.96022e-05 -2.57969e-05 -2.46132e-05 -2.93209e-05 -2.57969e-05 -3.22252e-05 -1.96022e-05 -2.57969e-05 -1.99065e-05 -2.75524e-05 -2.57969e-05 -3.22252e-05 -2.75524e-05 -3.5631e-05 -2.46715e-05 -2.64046e-05 -2.68843e-05 -3.02518e-05 -2.64046e-05 -2.90958e-05 -3.02518e-05 -3.44298e-05 -2.68843e-05 -3.02518e-05 -2.93209e-05 -3.4488e-05 -3.02518e-05 -3.44298e-05 -3.4488e-05 -4.04432e-05 -2.90958e-05 -3.27765e-05 -3.44298e-05 -3.95903e-05 -3.27765e-05 -3.74158e-05 -3.95903e-05 -4.58218e-05 -3.44298e-05 -3.95903e-05 -4.04432e-05 -4.74111e-05 -3.95903e-05 -4.58218e-05 -4.74111e-05 -5.5559e-05 -2.93209e-05 -3.4488e-05 -3.22252e-05 -3.92234e-05 -3.4488e-05 -4.04432e-05 -3.92234e-05 -4.70862e-05 -3.22252e-05 -3.92234e-05 -3.5631e-05 -4.44386e-05 -3.92234e-05 -4.70862e-05 -4.44386e-05 -5.42507e-05 -4.04432e-05 -4.74111e-05 -4.70862e-05 -5.60556e-05 -4.74111e-05 -5.5559e-05 -5.60556e-05 -6.63395e-05 -4.70862e-05 -5.60556e-05 -5.42507e-05 -6.53126e-05 -5.60556e-05 -6.63395e-05 -6.53126e-05 -7.78466e-05 -2.73344e-05 -2.93757e-05 -2.46986e-05 -2.71321e-05 -2.93757e-05 -3.06602e-05 -2.71321e-05 -2.94314e-05 -2.46986e-05 -2.71321e-05 -2.61863e-05 -2.93152e-05 -2.71321e-05 -2.94314e-05 -2.93152e-05 -3.28068e-05 -3.06602e-05 -3.10859e-05 -2.94314e-05 -3.16299e-05 -3.10859e-05 -3.06353e-05 -3.16299e-05 -3.38323e-05 -2.94314e-05 -3.16299e-05 -3.28068e-05 -3.675e-05 -3.16299e-05 -3.38323e-05 -3.675e-05 -4.1294e-05 -2.61863e-05 -2.93152e-05 -3.06936e-05 -3.48724e-05 -2.93152e-05 -3.28068e-05 -3.48724e-05 -3.98014e-05 -3.06936e-05 -3.48724e-05 -3.74158e-05 -4.30236e-05 -3.48724e-05 -3.98014e-05 -4.30236e-05 -4.9687e-05 -3.28068e-05 -3.675e-05 -3.98014e-05 -4.56045e-05 -3.675e-05 -4.1294e-05 -4.56045e-05 -5.24576e-05 -3.98014e-05 -4.56045e-05 -4.9687e-05 -5.75647e-05 -4.56045e-05 -5.24576e-05 -5.75647e-05 -6.68518e-05 -3.06353e-05 -2.94788e-05 -3.38323e-05 -3.62239e-05 -2.94788e-05 -2.80795e-05 -3.62239e-05 -3.9047e-05 -3.38323e-05 -3.62239e-05 -4.1294e-05 -4.66116e-05 -3.62239e-05 -3.9047e-05 -4.66116e-05 -5.28516e-05 -2.80795e-05 -2.72655e-05 -3.9047e-05 -4.25078e-05 -2.72655e-05 -2.80487e-05 -4.25078e-05 -4.67847e-05 -3.9047e-05 -4.25078e-05 -5.28516e-05 -6.01459e-05 -4.25078e-05 -4.67847e-05 -6.01459e-05 -6.88922e-05 -4.1294e-05 -4.66116e-05 -5.24576e-05 -6.05402e-05 -4.66116e-05 -5.28516e-05 -6.05402e-05 -6.99935e-05 -5.24576e-05 -6.05402e-05 -6.68518e-05 -7.77266e-05 -6.05402e-05 -6.99935e-05 -7.77266e-05 -9.02992e-05 -5.28516e-05 -6.01459e-05 -6.99935e-05 -8.09419e-05 -6.01459e-05 -6.88922e-05 -8.09419e-05 -9.35245e-05 -6.99935e-05 -8.09419e-05 -9.02992e-05 -0.000104579 -8.09419e-05 -9.35245e-05 -0.000104579 -0.000120481 -3.74158e-05 -4.30236e-05 -4.58218e-05 -5.32188e-05 -4.30236e-05 -4.9687e-05 -5.32188e-05 -6.19231e-05 -4.58218e-05 -5.32188e-05 -5.5559e-05 -6.5048e-05 -5.32188e-05 -6.19231e-05 -6.5048e-05 -7.60609e-05 -4.9687e-05 -5.75647e-05 -6.19231e-05 -7.21216e-05 -5.75647e-05 -6.68518e-05 -7.21216e-05 -8.40086e-05 -6.19231e-05 -7.21216e-05 -7.60609e-05 -8.87926e-05 -7.21216e-05 -8.40086e-05 -8.87926e-05 -0.000103403 -5.5559e-05 -6.5048e-05 -6.63395e-05 -7.81362e-05 -6.5048e-05 -7.60609e-05 -7.81362e-05 -9.16423e-05 -6.63395e-05 -7.81362e-05 -7.78466e-05 -9.20563e-05 -7.81362e-05 -9.16423e-05 -9.20563e-05 -0.000108118 -7.60609e-05 -8.87926e-05 -9.16423e-05 -0.000107029 -8.87926e-05 -0.000103403 -0.000107029 -0.000124384 -9.16423e-05 -0.000107029 -0.000108118 -0.000126144 -0.000107029 -0.000124384 -0.000126144 -0.000146114 -6.68518e-05 -7.77266e-05 -8.40086e-05 -9.7724e-05 -7.77266e-05 -9.02992e-05 -9.7724e-05 -0.000113285 -8.40086e-05 -9.7724e-05 -0.000103403 -0.000119948 -9.7724e-05 -0.000113285 -0.000119948 -0.0001383 -9.02992e-05 -0.000104579 -0.000113285 -0.000130542 -0.000104579 -0.000120481 -0.000130542 -0.000149178 -0.000113285 -0.000130542 -0.0001383 -0.000158118 -0.000130542 -0.000149178 -0.000158118 -0.000178868 -0.000103403 -0.000119948 -0.000124384 -0.000143636 -0.000119948 -0.0001383 -0.000143636 -0.000164485 -0.000124384 -0.000143636 -0.000146114 -0.000167805 -0.000143636 -0.000164485 -0.000167805 -0.000190745 -0.0001383 -0.000158118 -0.000164485 -0.000186391 -0.000158118 -0.000178868 -0.000186391 -0.000208629 -0.000164485 -0.000186391 -0.000190745 -0.000214223 -0.000186391 -0.000208629 -0.000214223 -0.000237364 -4.78561e-06 -1.24017e-05 -3.37151e-06 -1.20264e-05 -1.24017e-05 -1.99065e-05 -1.20264e-05 -2.07351e-05 -3.37151e-06 -1.20264e-05 -2.34669e-06 -1.20479e-05 -1.20264e-05 -2.07351e-05 -1.20479e-05 -2.19241e-05 -1.99065e-05 -2.75524e-05 -2.07351e-05 -2.97729e-05 -2.75524e-05 -3.5631e-05 -2.97729e-05 -3.94309e-05 -2.07351e-05 -2.97729e-05 -2.19241e-05 -3.22826e-05 -2.97729e-05 -3.94309e-05 -3.22826e-05 -4.34326e-05 -2.34669e-06 -1.20479e-05 -1.62425e-06 -1.23275e-05 -1.20479e-05 -2.19241e-05 -1.23275e-05 -2.32969e-05 -1.62425e-06 -1.23275e-05 -1.12552e-06 -1.27365e-05 -1.23275e-05 -2.32969e-05 -1.27365e-05 -2.46841e-05 -2.19241e-05 -3.22826e-05 -2.32969e-05 -3.48766e-05 -3.22826e-05 -4.34326e-05 -3.48766e-05 -4.73995e-05 -2.32969e-05 -3.48766e-05 -2.46841e-05 -3.73467e-05 -3.48766e-05 -4.73995e-05 -3.73467e-05 -5.1082e-05 -3.5631e-05 -4.44386e-05 -3.94309e-05 -4.99959e-05 -4.44386e-05 -5.42507e-05 -4.99959e-05 -6.1736e-05 -3.94309e-05 -4.99959e-05 -4.34326e-05 -5.56675e-05 -4.99959e-05 -6.1736e-05 -5.56675e-05 -6.92538e-05 -5.42507e-05 -6.53126e-05 -6.1736e-05 -7.48933e-05 -6.53126e-05 -