# vtk DataFile Version 3.0
#This file was generated by the deal.II library on 2022/11/17 at 0:08:41
ASCII
DATASET UNSTRUCTURED_GRID

POINTS 4096 double
0 0.5 0
0.03125 0.5 0
0 0.53125 0
0.03125 0.53125 0
0.03125 0.5 0
0.0625 0.5 0
0.03125 0.53125 0
0.0625 0.53125 0
0 0.53125 0
0.03125 0.53125 0
0 0.5625 0
0.03125 0.5625 0
0.03125 0.53125 0
0.0625 0.53125 0
0.03125 0.5625 0
0.0625 0.5625 0
0.0625 0.5 0
0.09375 0.5 0
0.0625 0.53125 0
0.09375 0.53125 0
0.09375 0.5 0
0.125 0.5 0
0.09375 0.53125 0
0.125 0.53125 0
0.0625 0.53125 0
0.09375 0.53125 0
0.0625 0.5625 0
0.09375 0.5625 0
0.09375 0.53125 0
0.125 0.53125 0
0.09375 0.5625 0
0.125 0.5625 0
0 0.5625 0
0.03125 0.5625 0
0 0.59375 0
0.03125 0.59375 0
0.03125 0.5625 0
0.0625 0.5625 0
0.03125 0.59375 0
0.0625 0.59375 0
0 0.59375 0
0.03125 0.59375 0
0 0.625 0
0.03125 0.625 0
0.03125 0.59375 0
0.0625 0.59375 0
0.03125 0.625 0
0.0625 0.625 0
0.0625 0.5625 0
0.09375 0.5625 0
0.0625 0.59375 0
0.09375 0.59375 0
0.09375 0.5625 0
0.125 0.5625 0
0.09375 0.59375 0
0.125 0.59375 0
0.0625 0.59375 0
0.09375 0.59375 0
0.0625 0.625 0
0.09375 0.625 0
0.09375 0.59375 0
0.125 0.59375 0
0.09375 0.625 0
0.125 0.625 0
0.125 0.5 0
0.15625 0.5 0
0.125 0.53125 0
0.15625 0.53125 0
0.15625 0.5 0
0.1875 0.5 0
0.15625 0.53125 0
0.1875 0.53125 0
0.125 0.53125 0
0.15625 0.53125 0
0.125 0.5625 0
0.15625 0.5625 0
0.15625 0.53125 0
0.1875 0.53125 0
0.15625 0.5625 0
0.1875 0.5625 0
0.1875 0.5 0
0.21875 0.5 0
0.1875 0.53125 0
0.21875 0.53125 0
0.21875 0.5 0
0.25 0.5 0
0.21875 0.53125 0
0.25 0.53125 0
0.1875 0.53125 0
0.21875 0.53125 0
0.1875 0.5625 0
0.21875 0.5625 0
0.21875 0.53125 0
0.25 0.53125 0
0.21875 0.5625 0
0.25 0.5625 0
0.125 0.5625 0
0.15625 0.5625 0
0.125 0.59375 0
0.15625 0.59375 0
0.15625 0.5625 0
0.1875 0.5625 0
0.15625 0.59375 0
0.1875 0.59375 0
0.125 0.59375 0
0.15625 0.59375 0
0.125 0.625 0
0.15625 0.625 0
0.15625 0.59375 0
0.1875 0.59375 0
0.15625 0.625 0
0.1875 0.625 0
0.1875 0.5625 0
0.21875 0.5625 0
0.1875 0.59375 0
0.21875 0.59375 0
0.21875 0.5625 0
0.25 0.5625 0
0.21875 0.59375 0
0.25 0.59375 0
0.1875 0.59375 0
0.21875 0.59375 0
0.1875 0.625 0
0.21875 0.625 0
0.21875 0.59375 0
0.25 0.59375 0
0.21875 0.625 0
0.25 0.625 0
0 0.625 0
0.03125 0.625 0
0 0.65625 0
0.03125 0.65625 0
0.03125 0.625 0
0.0625 0.625 0
0.03125 0.65625 0
0.0625 0.65625 0
0 0.65625 0
0.03125 0.65625 0
0 0.6875 0
0.03125 0.6875 0
0.03125 0.65625 0
0.0625 0.65625 0
0.03125 0.6875 0
0.0625 0.6875 0
0.0625 0.625 0
0.09375 0.625 0
0.0625 0.65625 0
0.09375 0.65625 0
0.09375 0.625 0
0.125 0.625 0
0.09375 0.65625 0
0.125 0.65625 0
0.0625 0.65625 0
0.09375 0.65625 0
0.0625 0.6875 0
0.09375 0.6875 0
0.09375 0.65625 0
0.125 0.65625 0
0.09375 0.6875 0
0.125 0.6875 0
0 0.6875 0
0.03125 0.6875 0
0 0.71875 0
0.03125 0.71875 0
0.03125 0.6875 0
0.0625 0.6875 0
0.03125 0.71875 0
0.0625 0.71875 0
0 0.71875 0
0.03125 0.71875 0
0 0.75 0
0.03125 0.75 0
0.03125 0.71875 0
0.0625 0.71875 0
0.03125 0.75 0
0.0625 0.75 0
0.0625 0.6875 0
0.09375 0.6875 0
0.0625 0.71875 0
0.09375 0.71875 0
0.09375 0.6875 0
0.125 0.6875 0
0.09375 0.71875 0
0.125 0.71875 0
0.0625 0.71875 0
0.09375 0.71875 0
0.0625 0.75 0
0.09375 0.75 0
0.09375 0.71875 0
0.125 0.71875 0
0.09375 0.75 0
0.125 0.75 0
0.125 0.625 0
0.15625 0.625 0
0.125 0.65625 0
0.15625 0.65625 0
0.15625 0.625 0
0.1875 0.625 0
0.15625 0.65625 0
0.1875 0.65625 0
0.125 0.65625 0
0.15625 0.65625 0
0.125 0.6875 0
0.15625 0.6875 0
0.15625 0.65625 0
0.1875 0.65625 0
0.15625 0.6875 0
0.1875 0.6875 0
0.1875 0.625 0
0.21875 0.625 0
0.1875 0.65625 0
0.21875 0.65625 0
0.21875 0.625 0
0.25 0.625 0
0.21875 0.65625 0
0.25 0.65625 0
0.1875 0.65625 0
0.21875 0.65625 0
0.1875 0.6875 0
0.21875 0.6875 0
0.21875 0.65625 0
0.25 0.65625 0
0.21875 0.6875 0
0.25 0.6875 0
0.125 0.6875 0
0.15625 0.6875 0
0.125 0.71875 0
0.15625 0.71875 0
0.15625 0.6875 0
0.1875 0.6875 0
0.15625 0.71875 0
0.1875 0.71875 0
0.125 0.71875 0
0.15625 0.71875 0
0.125 0.75 0
0.15625 0.75 0
0.15625 0.71875 0
0.1875 0.71875 0
0.15625 0.75 0
0.1875 0.75 0
0.1875 0.6875 0
0.21875 0.6875 0
0.1875 0.71875 0
0.21875 0.71875 0
0.21875 0.6875 0
0.25 0.6875 0
0.21875 0.71875 0
0.25 0.71875 0
0.1875 0.71875 0
0.21875 0.71875 0
0.1875 0.75 0
0.21875 0.75 0
0.21875 0.71875 0
0.25 0.71875 0
0.21875 0.75 0
0.25 0.75 0
0.25 0.5 0
0.28125 0.5 0
0.25 0.53125 0
0.28125 0.53125 0
0.28125 0.5 0
0.3125 0.5 0
0.28125 0.53125 0
0.3125 0.53125 0
0.25 0.53125 0
0.28125 0.53125 0
0.25 0.5625 0
0.28125 0.5625 0
0.28125 0.53125 0
0.3125 0.53125 0
0.28125 0.5625 0
0.3125 0.5625 0
0.3125 0.5 0
0.34375 0.5 0
0.3125 0.53125 0
0.34375 0.53125 0
0.34375 0.5 0
0.375 0.5 0
0.34375 0.53125 0
0.375 0.53125 0
0.3125 0.53125 0
0.34375 0.53125 0
0.3125 0.5625 0
0.34375 0.5625 0
0.34375 0.53125 0
0.375 0.53125 0
0.34375 0.5625 0
0.375 0.5625 0
0.25 0.5625 0
0.28125 0.5625 0
0.25 0.59375 0
0.28125 0.59375 0
0.28125 0.5625 0
0.3125 0.5625 0
0.28125 0.59375 0
0.3125 0.59375 0
0.25 0.59375 0
0.28125 0.59375 0
0.25 0.625 0
0.28125 0.625 0
0.28125 0.59375 0
0.3125 0.59375 0
0.28125 0.625 0
0.3125 0.625 0
0.3125 0.5625 0
0.34375 0.5625 0
0.3125 0.59375 0
0.34375 0.59375 0
0.34375 0.5625 0
0.375 0.5625 0
0.34375 0.59375 0
0.375 0.59375 0
0.3125 0.59375 0
0.34375 0.59375 0
0.3125 0.625 0
0.34375 0.625 0
0.34375 0.59375 0
0.375 0.59375 0
0.34375 0.625 0
0.375 0.625 0
0.375 0.5 0
0.40625 0.5 0
0.375 0.53125 0
0.40625 0.53125 0
0.40625 0.5 0
0.4375 0.5 0
0.40625 0.53125 0
0.4375 0.53125 0
0.375 0.53125 0
0.40625 0.53125 0
0.375 0.5625 0
0.40625 0.5625 0
0.40625 0.53125 0
0.4375 0.53125 0
0.40625 0.5625 0
0.4375 0.5625 0
0.4375 0.5 0
0.46875 0.5 0
0.4375 0.53125 0
0.46875 0.53125 0
0.46875 0.5 0
0.5 0.5 0
0.46875 0.53125 0
0.5 0.53125 0
0.4375 0.53125 0
0.46875 0.53125 0
0.4375 0.5625 0
0.46875 0.5625 0
0.46875 0.53125 0
0.5 0.53125 0
0.46875 0.5625 0
0.5 0.5625 0
0.375 0.5625 0
0.40625 0.5625 0
0.375 0.59375 0
0.40625 0.59375 0
0.40625 0.5625 0
0.4375 0.5625 0
0.40625 0.59375 0
0.4375 0.59375 0
0.375 0.59375 0
0.40625 0.59375 0
0.375 0.625 0
0.40625 0.625 0
0.40625 0.59375 0
0.4375 0.59375 0
0.40625 0.625 0
0.4375 0.625 0
0.4375 0.5625 0
0.46875 0.5625 0
0.4375 0.59375 0
0.46875 0.59375 0
0.46875 0.5625 0
0.5 0.5625 0
0.46875 0.59375 0
0.5 0.59375 0
0.4375 0.59375 0
0.46875 0.59375 0
0.4375 0.625 0
0.46875 0.625 0
0.46875 0.59375 0
0.5 0.59375 0
0.46875 0.625 0
0.5 0.625 0
0.25 0.625 0
0.28125 0.625 0
0.25 0.65625 0
0.28125 0.65625 0
0.28125 0.625 0
0.3125 0.625 0
0.28125 0.65625 0
0.3125 0.65625 0
0.25 0.65625 0
0.28125 0.65625 0
0.25 0.6875 0
0.28125 0.6875 0
0.28125 0.65625 0
0.3125 0.65625 0
0.28125 0.6875 0
0.3125 0.6875 0
0.3125 0.625 0
0.34375 0.625 0
0.3125 0.65625 0
0.34375 0.65625 0
0.34375 0.625 0
0.375 0.625 0
0.34375 0.65625 0
0.375 0.65625 0
0.3125 0.65625 0
0.34375 0.65625 0
0.3125 0.6875 0
0.34375 0.6875 0
0.34375 0.65625 0
0.375 0.65625 0
0.34375 0.6875 0
0.375 0.6875 0
0.25 0.6875 0
0.28125 0.6875 0
0.25 0.71875 0
0.28125 0.71875 0
0.28125 0.6875 0
0.3125 0.6875 0
0.28125 0.71875 0
0.3125 0.71875 0
0.25 0.71875 0
0.28125 0.71875 0
0.25 0.75 0
0.28125 0.75 0
0.28125 0.71875 0
0.3125 0.71875 0
0.28125 0.75 0
0.3125 0.75 0
0.3125 0.6875 0
0.34375 0.6875 0
0.3125 0.71875 0
0.34375 0.71875 0
0.34375 0.6875 0
0.375 0.6875 0
0.34375 0.71875 0
0.375 0.71875 0
0.3125 0.71875 0
0.34375 0.71875 0
0.3125 0.75 0
0.34375 0.75 0
0.34375 0.71875 0
0.375 0.71875 0
0.34375 0.75 0
0.375 0.75 0
0.375 0.625 0
0.40625 0.625 0
0.375 0.65625 0
0.40625 0.65625 0
0.40625 0.625 0
0.4375 0.625 0
0.40625 0.65625 0
0.4375 0.65625 0
0.375 0.65625 0
0.40625 0.65625 0
0.375 0.6875 0
0.40625 0.6875 0
0.40625 0.65625 0
0.4375 0.65625 0
0.40625 0.6875 0
0.4375 0.6875 0
0.4375 0.625 0
0.46875 0.625 0
0.4375 0.65625 0
0.46875 0.65625 0
0.46875 0.625 0
0.5 0.625 0
0.46875 0.65625 0
0.5 0.65625 0
0.4375 0.65625 0
0.46875 0.65625 0
0.4375 0.6875 0
0.46875 0.6875 0
0.46875 0.65625 0
0.5 0.65625 0
0.46875 0.6875 0
0.5 0.6875 0
0.375 0.6875 0
0.40625 0.6875 0
0.375 0.71875 0
0.40625 0.71875 0
0.40625 0.6875 0
0.4375 0.6875 0
0.40625 0.71875 0
0.4375 0.71875 0
0.375 0.71875 0
0.40625 0.71875 0
0.375 0.75 0
0.40625 0.75 0
0.40625 0.71875 0
0.4375 0.71875 0
0.40625 0.75 0
0.4375 0.75 0
0.4375 0.6875 0
0.46875 0.6875 0
0.4375 0.71875 0
0.46875 0.71875 0
0.46875 0.6875 0
0.5 0.6875 0
0.46875 0.71875 0
0.5 0.71875 0
0.4375 0.71875 0
0.46875 0.71875 0
0.4375 0.75 0
0.46875 0.75 0
0.46875 0.71875 0
0.5 0.71875 0
0.46875 0.75 0
0.5 0.75 0
0 0.75 0
0.03125 0.75 0
0 0.78125 0
0.03125 0.78125 0
0.03125 0.75 0
0.0625 0.75 0
0.03125 0.78125 0
0.0625 0.78125 0
0 0.78125 0
0.03125 0.78125 0
0 0.8125 0
0.03125 0.8125 0
0.03125 0.78125 0
0.0625 0.78125 0
0.03125 0.8125 0
0.0625 0.8125 0
0.0625 0.75 0
0.09375 0.75 0
0.0625 0.78125 0
0.09375 0.78125 0
0.09375 0.75 0
0.125 0.75 0
0.09375 0.78125 0
0.125 0.78125 0
0.0625 0.78125 0
0.09375 0.78125 0
0.0625 0.8125 0
0.09375 0.8125 0
0.09375 0.78125 0
0.125 0.78125 0
0.09375 0.8125 0
0.125 0.8125 0
0 0.8125 0
0.03125 0.8125 0
0 0.84375 0
0.03125 0.84375 0
0.03125 0.8125 0
0.0625 0.8125 0
0.03125 0.84375 0
0.0625 0.84375 0
0 0.84375 0
0.03125 0.84375 0
0 0.875 0
0.03125 0.875 0
0.03125 0.84375 0
0.0625 0.84375 0
0.03125 0.875 0
0.0625 0.875 0
0.0625 0.8125 0
0.09375 0.8125 0
0.0625 0.84375 0
0.09375 0.84375 0
0.09375 0.8125 0
0.125 0.8125 0
0.09375 0.84375 0
0.125 0.84375 0
0.0625 0.84375 0
0.09375 0.84375 0
0.0625 0.875 0
0.09375 0.875 0
0.09375 0.84375 0
0.125 0.84375 0
0.09375 0.875 0
0.125 0.875 0
0.125 0.75 0
0.15625 0.75 0
0.125 0.78125 0
0.15625 0.78125 0
0.15625 0.75 0
0.1875 0.75 0
0.15625 0.78125 0
0.1875 0.78125 0
0.125 0.78125 0
0.15625 0.78125 0
0.125 0.8125 0
0.15625 0.8125 0
0.15625 0.78125 0
0.1875 0.78125 0
0.15625 0.8125 0
0.1875 0.8125 0
0.1875 0.75 0
0.21875 0.75 0
0.1875 0.78125 0
0.21875 0.78125 0
0.21875 0.75 0
0.25 0.75 0
0.21875 0.78125 0
0.25 0.78125 0
0.1875 0.78125 0
0.21875 0.78125 0
0.1875 0.8125 0
0.21875 0.8125 0
0.21875 0.78125 0
0.25 0.78125 0
0.21875 0.8125 0
0.25 0.8125 0
0.125 0.8125 0
0.15625 0.8125 0
0.125 0.84375 0
0.15625 0.84375 0
0.15625 0.8125 0
[...]
POINT_DATA 4096
SCALARS x_dis double 1
LOOKUP_TABLE default
2.52798e-05 1.92111e-05 3.33463e-05 2.56311e-05 1.92111e-05 1.49129e-05 2.56311e-05 2.0048e-05 3.33463e-05 2.56311e-05 4.34261e-05 3.37954e-05 2.56311e-05 2.0048e-05 3.37954e-05 2.6663e-05 1.49129e-05 1.18742e-05 2.0048e-05 1.60289e-05 1.18742e-05 9.68352e-06 1.60289e-05 1.3091e-05 2.0048e-05 1.60289e-05 2.6663e-05 2.14238e-05 1.60289e-05 1.3091e-05 2.14238e-05 1.75308e-05 4.34261e-05 3.37954e-05 5.58015e-05 4.40162e-05 3.37954e-05 2.6663e-05 4.40162e-05 3.50662e-05 5.58015e-05 4.40162e-05 7.07102e-05 5.65959e-05 4.40162e-05 3.50662e-05 5.65959e-05 4.55778e-05 2.6663e-05 2.14238e-05 3.50662e-05 2.83405e-05 2.14238e-05 1.75308e-05 2.83405e-05 2.32467e-05 3.50662e-05 2.83405e-05 4.55778e-05 3.70823e-05 2.83405e-05 2.32467e-05 3.70823e-05 3.05052e-05 9.68352e-06 8.03805e-06 1.3091e-05 1.08647e-05 8.03805e-06 6.73139e-06 1.08647e-05 9.09097e-06 1.3091e-05 1.08647e-05 1.75308e-05 1.45469e-05 1.08647e-05 9.09097e-06 1.45469e-05 1.21557e-05 6.73139e-06 5.63254e-06 9.09097e-06 7.60167e-06 5.63254e-06 4.66405e-06 7.60167e-06 6.29536e-06 9.09097e-06 7.60167e-06 1.21557e-05 1.01469e-05 7.60167e-06 6.29536e-06 1.01469e-05 8.38954e-06 1.75308e-05 1.45469e-05 2.32467e-05 1.92877e-05 1.45469e-05 1.21557e-05 1.92877e-05 1.60907e-05 2.32467e-05 1.92877e-05 3.05052e-05 2.53095e-05 1.92877e-05 1.60907e-05 2.53095e-05 2.10747e-05 1.21557e-05 1.01469e-05 1.60907e-05 1.34003e-05 1.01469e-05 8.38954e-06 1.34003e-05 1.10533e-05 1.60907e-05 1.34003e-05 2.10747e-05 1.75029e-05 1.34003e-05 1.10533e-05 1.75029e-05 1.43981e-05 7.07102e-05 5.65959e-05 8.83014e-05 7.17877e-05 5.65959e-05 4.55778e-05 7.17877e-05 5.84956e-05 8.83014e-05 7.17877e-05 0.000108571 8.97284e-05 7.17877e-05 5.84956e-05 8.97284e-05 7.40309e-05 4.55778e-05 3.70823e-05 5.84956e-05 4.79448e-05 3.70823e-05 3.05052e-05 4.79448e-05 3.95712e-05 5.84956e-05 4.79448e-05 7.40309e-05 6.11601e-05 4.79448e-05 3.95712e-05 6.11601e-05 5.06623e-05 0.000108571 8.97284e-05 0.000131271 0.000110335 8.97284e-05 7.40309e-05 0.000110335 9.22069e-05 0.000131271 0.000110335 0.000155802 0.000133169 0.000110335 9.22069e-05 0.000133169 0.000112721 7.40309e-05 6.11601e-05 9.22069e-05 7.68071e-05 6.11601e-05 5.06623e-05 7.68071e-05 6.38752e-05 9.22069e-05 7.68071e-05 0.000112721 9.46899e-05 7.68071e-05 6.38752e-05 9.46899e-05 7.90875e-05 3.05052e-05 2.53095e-05 3.95712e-05 3.28338e-05 2.53095e-05 2.10747e-05 3.28338e-05 2.72843e-05 3.95712e-05 3.28338e-05 5.06623e-05 4.20455e-05 3.28338e-05 2.72843e-05 4.20455e-05 3.48656e-05 2.10747e-05 1.75029e-05 2.72843e-05 2.25906e-05 1.75029e-05 1.43981e-05 2.25906e-05 1.85265e-05 2.72843e-05 2.25906e-05 3.48656e-05 2.87725e-05 2.25906e-05 1.85265e-05 2.87725e-05 2.35156e-05 5.06623e-05 4.20455e-05 6.38752e-05 5.3035e-05 4.20455e-05 3.48656e-05 5.3035e-05 4.38909e-05 6.38752e-05 5.3035e-05 7.90875e-05 6.57238e-05 5.3035e-05 4.38909e-05 6.57238e-05 5.43043e-05 3.48656e-05 2.87725e-05 4.38909e-05 3.60991e-05 2.87725e-05 2.35156e-05 3.60991e-05 2.9395e-05 4.38909e-05 3.60991e-05 5.43043e-05 4.45238e-05 3.60991e-05 2.9395e-05 4.45238e-05 3.61202e-05 4.66405e-06 3.78429e-06 6.29536e-06 5.11475e-06 3.78429e-06 2.97588e-06 5.11475e-06 4.02971e-06 6.29536e-06 5.11475e-06 8.38954e-06 6.80515e-06 5.11475e-06 4.02971e-06 6.80515e-06 5.34299e-06 2.97588e-06 2.24215e-06 4.02971e-06 3.02639e-06 2.24215e-06 1.6141e-06 3.02639e-06 2.10112e-06 4.02971e-06 3.02639e-06 5.34299e-06 3.95881e-06 3.02639e-06 2.10112e-06 3.95881e-06 2.58967e-06 8.38954e-06 6.80515e-06 1.10533e-05 8.94745e-06 6.80515e-06 5.34299e-06 8.94745e-06 7.01076e-06 1.10533e-05 8.94745e-06 1.43981e-05 1.16341e-05 8.94745e-06 7.01076e-06 1.16341e-05 9.12133e-06 5.34299e-06 3.95881e-06 7.01076e-06 5.17407e-06 3.95881e-06 2.58967e-06 5.17407e-06 3.34206e-06 7.01076e-06 5.17407e-06 9.12133e-06 6.77816e-06 5.17407e-06 3.34206e-06 6.77816e-06 4.50966e-06 1.6141e-06 1.18147e-06 2.10112e-06 1.24668e-06 1.18147e-06 1.16015e-06 1.24668e-06 4.0142e-07 2.10112e-06 1.24668e-06 2.58967e-06 1.10697e-06 1.24668e-06 4.0142e-07 1.10697e-06 -8.03845e-07 1.16015e-06 2.37861e-06 4.0142e-07 -1.08827e-06 2.37861e-06 5.09325e-06 -1.08827e-06 -6.1302e-06 4.0142e-07 -1.08827e-06 -8.03845e-07 -3.85667e-06 -1.08827e-06 -6.1302e-06 -3.85667e-06 -7.15854e-06 2.58967e-06 1.10697e-06 3.34206e-06 1.36108e-06 1.10697e-06 -8.03845e-07 1.36108e-06 -9.97631e-07 3.34206e-06 1.36108e-06 4.50966e-06 2.20295e-06 1.36108e-06 -9.97631e-07 2.20295e-06 -2.03535e-07 -8.03845e-07 -3.85667e-06 -9.97631e-07 -3.68944e-06 -3.85667e-06 -7.15854e-06 -3.68944e-06 -6.16841e-06 -9.97631e-07 -3.68944e-06 -2.03535e-07 -2.62046e-06 -3.68944e-06 -6.16841e-06 -2.62046e-06 -4.73465e-06 1.43981e-05 1.16341e-05 1.85265e-05 1.49428e-05 1.16341e-05 9.12133e-06 1.49428e-05 1.17346e-05 1.85265e-05 1.49428e-05 2.35156e-05 1.89238e-05 1.49428e-05 1.17346e-05 1.89238e-05 1.48755e-05 9.12133e-06 6.77816e-06 1.17346e-05 8.81416e-06 6.77816e-06 4.50966e-06 8.81416e-06 6.09591e-06 1.17346e-05 8.81416e-06 1.48755e-05 1.12739e-05 8.81416e-06 6.09591e-06 1.12739e-05 8.03297e-06 2.35156e-05 1.89238e-05 2.9395e-05 2.3587e-05 1.89238e-05 1.48755e-05 2.3587e-05 1.85336e-05 2.9395e-05 2.3587e-05 3.61202e-05 2.88863e-05 2.3587e-05 1.85336e-05 2.88863e-05 2.26582e-05 1.48755e-05 1.12739e-05 1.85336e-05 1.41203e-05 1.12739e-05 8.03297e-06 1.41203e-05 1.02449e-05 1.85336e-05 1.41203e-05 2.26582e-05 1.72954e-05 1.41203e-05 1.02449e-05 1.72954e-05 1.26665e-05 4.50966e-06 2.20295e-06 6.09591e-06 3.50524e-06 2.20295e-06 -2.03535e-07 3.50524e-06 1.00939e-06 6.09591e-06 3.50524e-06 8.03297e-06 5.07915e-06 3.50524e-06 1.00939e-06 5.07915e-06 2.36417e-06 -2.03535e-07 -2.62046e-06 1.00939e-06 -1.34104e-06 -2.62046e-06 -4.73465e-06 -1.34104e-06 -3.42347e-06 1.00939e-06 -1.34104e-06 2.36417e-06 -1.26041e-07 -1.34104e-06 -3.42347e-06 -1.26041e-07 -2.38407e-06 8.03297e-06 5.07915e-06 1.02449e-05 6.81293e-06 5.07915e-06 2.36417e-06 6.81293e-06 3.74026e-06 1.02449e-05 6.81293e-06 1.26665e-05 8.64289e-06 6.81293e-06 3.74026e-06 8.64289e-06 5.09668e-06 2.36417e-06 -1.26041e-07 3.74026e-06 9.5352e-07 -1.26041e-07 -2.38407e-06 9.5352e-07 -1.61831e-06 3.74026e-06 9.5352e-07 5.09668e-06 1.90007e-06 9.5352e-07 -1.61831e-06 1.90007e-06 -1.0786e-06 0.000155802 0.000133169 0.000181121 0.000157306 0.000133169 0.000112721 0.000157306 0.000134811 0.000181121 0.000157306 0.000205761 0.000181313 0.000157306 0.000134811 0.000181313 0.000157214 0.000112721 9.46899e-05 0.000134811 0.000114218 9.46899e-05 7.90875e-05 0.000114218 9.58593e-05 0.000134811 0.000114218 0.000157214 0.000134358 0.000114218 9.58593e-05 0.000134358 0.000113384 0.000205761 0.000181313 0.000228054 0.000203454 0.000181313 0.000157214 0.000203454 0.000178325 0.000228054 0.000203454 0.000246572 0.000222139 0.000203454 0.000178325 0.000222139 0.000196574 0.000157214 0.000134358 0.000178325 0.000153735 0.000134358 0.000113384 0.000153735 0.000130547 0.000178325 0.000153735 0.000196574 0.00017092 0.000153735 0.000130547 0.00017092 0.00014612 7.90875e-05 6.57238e-05 9.58593e-05 7.97882e-05 6.57238e-05 5.43043e-05 7.97882e-05 6.58644e-05 9.58593e-05 7.97882e-05 0.000113384 9.46148e-05 7.97882e-05 6.58644e-05 9.46148e-05 7.81085e-05 5.43043e-05 4.45238e-05 6.58644e-05 5.38615e-05 4.45238e-05 3.61202e-05 5.38615e-05 4.35444e-05 6.58644e-05 5.38615e-05 7.81085e-05 6.37614e-05 5.38615e-05 4.35444e-05 6.37614e-05 5.13994e-05 0.000113384 9.46148e-05 0.000130547 0.00010933 9.46148e-05 7.81085e-05 0.00010933 9.0364e-05 0.000130547 0.00010933 0.00014612 0.000122922 0.00010933 9.0364e-05 0.000122922 0.000101823 7.81085e-05 6.37614e-05 9.0364e-05 7.371e-05 6.37614e-05 5.13994e-05 7.371e-05 5.92951e-05 9.0364e-05 7.371e-05 0.000101823 8.30769e-05 7.371e-05 5.92951e-05 8.30769e-05 6.6748e-05 0.000246572 0.000222139 0.000260564 0.000236421 0.000222139 0.000196574 0.000236421 0.000210876 0.000260564 0.000236421 0.000270039 0.000246157 0.000236421 0.000210876 0.000246157 0.000220848 0.000196574 0.00017092 0.000210876 0.00018478 0.00017092 0.00014612 0.00018478 0.000159018 0.000210876 0.00018478 0.000220848 0.000194718 0.00018478 0.000159018 0.000194718 0.000168516 0.000270039 0.000246157 0.000275445 0.000251719 0.000246157 0.000220848 0.000251719 0.000226633 0.000275445 0.000251719 0.000277196 0.000253519 0.000251719 0.000226633 0.000253519 0.000228519 0.000220848 0.000194718 0.000226633 0.000200608 0.000194718 0.000168516 0.000200608 0.000174269 0.000226633 0.000200608 0.000228519 0.00020255 0.000200608 0.000174269 0.00020255 0.000176189 0.00014612 0.000122922 0.000159018 0.000134423 0.000122922 0.000101823 0.000134423 0.000111666 0.000159018 0.000134423 0.000168516 0.000143078 0.000134423 0.000111666 0.000143078 0.000119191 0.000101823 8.30769e-05 0.000111666 9.11974e-05 8.30769e-05 6.6748e-05 9.11974e-05 7.32379e-05 0.000111666 9.11974e-05 0.000119191 9.74677e-05 9.11974e-05 7.32379e-05 9.74677e-05 7.82757e-05 0.000168516 0.000143078 0.000174269 0.000148417 0.000143078 0.000119191 0.000148417 0.000123896 0.000174269 0.000148417 0.000176189 0.000150217 0.000148417 0.000123896 0.000150217 0.000125494 0.000119191 9.74677e-05 0.000123896 0.000101422 9.74677e-05 7.82757e-05 0.000101422 8.14676e-05 0.000123896 0.000101422 0.000125494 0.000102773 0.000101422 8.14676e-05 0.000102773 8.25606e-05 3.61202e-05 2.88863e-05 4.35444e-05 3.47023e-05 2.88863e-05 2.26582e-05 3.47023e-05 2.71496e-05 4.35444e-05 3.47023e-05 5.13994e-05 4.0828e-05 3.47023e-05 2.71496e-05 4.0828e-05 3.18486e-05 2.26582e-05 1.72954e-05 2.71496e-05 2.0715e-05 1.72954e-05 1.26665e-05 2.0715e-05 1.52297e-05 2.71496e-05 2.0715e-05 3.18486e-05 2.42589e-05 2.0715e-05 1.52297e-05 2.42589e-05 1.7849e-05 5.13994e-05 4.0828e-05 5.92951e-05 4.69687e-05 4.0828e-05 3.18486e-05 4.69687e-05 3.6535e-05 5.92951e-05 4.69687e-05 6.6748e-05 5.27602e-05 4.69687e-05 3.6535e-05 5.27602e-05 4.09396e-05 3.18486e-05 2.42589e-05 3.6535e-05 2.77669e-05 2.42589e-05 1.7849e-05 2.77669e-05 2.04142e-05 3.6535e-05 2.77669e-05 4.09396e-05 3.10453e-05 2.77669e-05 2.04142e-05 3.10453e-05 2.27928e-05 1.26665e-05 8.64289e-06 1.52297e-05 1.05226e-05 8.64289e-06 5.09668e-06 1.05226e-05 6.41791e-06 1.52297e-05 1.05226e-05 1.7849e-05 1.24006e-05 1.05226e-05 6.41791e-06 1.24006e-05 7.68767e-06 5.09668e-06 1.90007e-06 6.41791e-06 2.73566e-06 1.90007e-06 -1.0786e-06 2.73566e-06 -7.0944e-07 6.41791e-06 2.73566e-06 7.68767e-06 3.47876e-06 2.73566e-06 -7.0944e-07 3.47876e-06 -4.62492e-07 1.7849e-05 1.24006e-05 2.04142e-05 1.42102e-05 1.24006e-05 7.68767e-06 1.42102e-05 8.87853e-06 2.04142e-05 1.42102e-05 2.27928e-05 1.587e-05 1.42102e-05 8.87853e-06 1.587e-05 9.95076e-06 7.68767e-06 3.47876e-06 8.87853e-06 4.13681e-06 3.47876e-06 -4.62492e-07 4.13681e-06 -3.00346e-07 8.87853e-06 4.13681e-06 9.95076e-06 4.70573e-06 4.13681e-06 -3.00346e-07 4.70573e-06 -1.95659e-07 6.6748e-05 5.27602e-05 7.32379e-05 5.78073e-05 5.27602e-05 4.09396e-05 5.78073e-05 4.47707e-05 7.32379e-05 5.78073e-05 7.82757e-05 6.17324e-05 5.78073e-05 4.47707e-05 6.17324e-05 4.77482e-05 4.09396e-05 3.10453e-05 4.47707e-05 3.38857e-05 3.10453e-05 2.27928e-05 3.38857e-05 2.48417e-05 4.47707e-05 3.38857e-05 4.77482e-05 3.60871e-05 3.38857e-05 2.48417e-05 3.60871e-05 2.64236e-05 7.82757e-05 6.17324e-05 8.14676e-05 6.42237e-05 6.17324e-05 4.77482e-05 6.42237e-05 4.96387e-05 8.14676e-05 6.42237e-05 8.25606e-05 6.50782e-05 6.42237e-05 4.96387e-05 6.50782e-05 5.0287e-05 4.77482e-05 3.60871e-05 4.96387e-05 3.74844e-05 3.60871e-05 2.64236e-05 3.74844e-05 2.74248e-05 4.96387e-05 3.74844e-05 5.0287e-05 3.79628e-05 3.74844e-05 2.74248e-05 3.79628e-05 2.77674e-05 2.27928e-05 1.587e-05 2.48417e-05 1.72881e-05 1.587e-05 9.95076e-06 1.72881e-05 1.08561e-05 2.48417e-05 1.72881e-05 2.64236e-05 1.83783e-05 1.72881e-05 1.08561e-05 1.83783e-05 1.15454e-05 9.95076e-06 4.70573e-06 1.08561e-05 5.17389e-06 4.70573e-06 -1.95659e-07 5.17389e-06 -1.29422e-07 1.08561e-05 5.17389e-06 1.15454e-05 5.52296e-06 5.17389e-06 -1.29422e-07 5.52296e-06 -8.97235e-08 2.64236e-05 1.83783e-05 2.74248e-05 1.90629e-05 1.83783e-05 1.15454e-05 1.90629e-05 1.19763e-05 2.74248e-05 1.90629e-05 2.77674e-05 1.92978e-05 1.90629e-05 1.19763e-05 1.92978e-05 1.21233e-05 1.15454e-05 5.52296e-06 1.19763e-05 5.74e-06 5.52296e-06 -8.97235e-08 5.74e-06 -6.89109e-08 1.19763e-05 5.74e-06 1.21233e-05 5.81295e-06 5.74e-06 -6.89109e-08 5.81295e-06 -6.25406e-08 5.09325e-06 4.83836e-06 -6.1302e-06 -7.85735e-06 4.83836e-06 1.31401e-06 -7.85735e-06 -4.97451e-06 -6.1302e-06 -7.85735e-06 -7.15854e-06 -8.61017e-06 -7.85735e-06 -4.97451e-06 -8.61017e-06 -7.73246e-06 1.31401e-06 -1.84825e-06 -4.97451e-06 -4.28196e-06 -1.84825e-06 -3.98166e-06 -4.28196e-06 -4.54844e-06 -4.97451e-06 -4.28196e-06 -7.73246e-06 -6.32342e-06 -4.28196e-06 -4.54844e-06 -6.32342e-06 -5.82802e-06 -7.15854e-06 -8.61017e-06 -6.16841e-06 -7.54161e-06 -8.61017e-06 -7.73246e-06 -7.54161e-06 -7.6326e-06 -6.16841e-06 -7.54161e-06 -4.73465e-06 -6.20887e-06 -7.54161e-06 -7.6326e-06 -6.20887e-06 -7.00352e-06 -7.73246e-06 -6.32342e-06 -7.6326e-06 -7.19719e-06 -6.32342e-06 -5.82802e-06 -7.19719e-06 -6.98885e-06 -7.6326e-06 -7.19719e-06 -7.00352e-06 -7.4495e-06 -7.19719e-06 -6.98885e-06 -7.4495e-06 -7.98411e-06 -3.98166e-06 -5.57103e-06 -4.54844e-06 -5.22303e-06 -5.57103e-06 -6.89602e-06 -5.22303e-06 -6.08459e-06 -4.54844e-06 -5.22303e-06 -5.82802e-06 -6.03716e-06 -5.22303e-06 -6.08459e-06 -6.03716e-06 -6.70807e-06 -6.89602e-06 -8.10926e-06 -6.08459e-06 -7.0493e-06 -8.10926e-06 -9.24992e-06 -7.0493e-06 -8.07499e-06 -6.08459e-06 -7.0493e-06 -6.70807e-06 -7.67709e-06 -7.0493e-06 -8.07499e-06 -7.67709e-06 -8.8559e-06 -5.82802e-06 -6.03716e-06 -6.98885e-06 -7.3384e-06 -6.03716e-06 -6.70807e-06 -7.3384e-06 -8.18996e-06 -6.98885e-06 -7.3384e-06 -7.98411e-06 -8.88204e-06 -7.3384e-06 -8.18996e-06 -8.88204e-06 -1.02371e-05 -6.70807e-06 -7.67709e-06 -8.18996e-06 -9.44269e-06 -7.67709e-06 -8.8559e-06 -9.44269e-06 -1.10244e-05 -8.18996e-06 -9.44269e-06 -1.02371e-05 -1.20375e-05 -9.44269e-06 -1.10244e-05 -1.20375e-05 -1.42613e-05 -4.73465e-06 -6.20887e-06 -3.42347e-06 -5.1317e-06 -6.20887e-06 -7.00352e-06 -5.1317e-06 -6.49685e-06 -3.42347e-06 -5.1317e-06 -2.38407e-06 -4.42313e-06 -5.1317e-06 -6.49685e-06 -4.42313e-06 -6.32121e-06 -7.00352e-06 -7.4495e-06 -6.49685e-06 -7.71195e-06 -7.4495e-06 -7.98411e-06 -7.71195e-06 -9.03454e-06 -6.49685e-06 -7.71195e-06 -6.32121e-06 -8.22873e-06 -7.71195e-06 -9.03454e-06 -8.22873e-06 -1.03311e-05 -2.38407e-06 -4.42313e-06 -1.61831e-06 -4.06161e-06 -4.42313e-06 -6.32121e-06 -4.06161e-06 -6.49445e-06 -1.61831e-06 -4.06161e-06 -1.0786e-06 -3.9816e-06 -4.06161e-06 -6.49445e-06 -3.9816e-06 -6.96707e-06 -6.32121e-06 -8.22873e-06 -6.49445e-06 -9.06776e-06 -8.22873e-06 -1.03311e-05 -9.06776e-06 -1.19485e-05 -6.49445e-06 -9.06776e-06 -6.96707e-06 -1.02077e-05 -9.06776e-06 -1.19485e-05 -1.02077e-05 -1.38823e-05 -7.98411e-06 -8.88204e-06 -9.03454e-06 -1.06767e-05 -8.88204e-06 -1.02371e-05 -1.06767e-05 -1.27584e-05 -9.03454e-06 -1.06767e-05 -1.03311e-05 -1.27984e-05 -1.06767e-05 -1.27584e-05 -1.27984e-05 -1.57574e-05 -1.02371e-05 -1.20375e-05 -1.27584e-05 -1.53322e-05 -1.20375e-05 -1.42613e-05 -1.53322e-05 -1.84274e-05 -1.27584e-05 -1.53322e-05 -1.57574e-05 -1.92953e-05 -1.53322e-05 -1.84274e-05 -1.92953e-05 -2.34836e-05 -1.03311e-05 -1.27984e-05 -1.19485e-05 -1.52964e-05 -1.27984e-05 -1.57574e-05 -1.52964e-05 -1.92485e-05 -1.19485e-05 -1.52964e-05 -1.38823e-05 -1.81635e-05 -1.52964e-05 -1.92485e-05 -1.81635e-05 -2.32097e-05 -1.57574e-05 -1.92953e-05 -1.92485e-05 -2.39192e-05 -1.92953e-05 -2.34836e-05 -2.39192e-05 -2.94154e-05 -1.92485e-05 -2.39192e-05 -2.32097e-05 -2.91648e-05 -2.39192e-05 -2.94154e-05 -2.91648e-05 -3.61696e-05 -9.24992e-06 -1.02827e-05 -8.07499e-06 -9.13033e-06 -1.02827e-05 -1.11245e-05 -9.13033e-06 -1.01934e-05 -8.07499e-06 -9.13033e-06 -8.8559e-06 -1.02079e-05 -9.13033e-06 -1.01934e-05 -1.02079e-05 -1.17414e-05 -1.11245e-05 -1.16708e-05 -1.01934e-05 -1.1265e-05 -1.16708e-05 -1.18299e-05 -1.1265e-05 -1.23912e-05 -1.01934e-05 -1.1265e-05 -1.17414e-05 -1.35161e-05 -1.1265e-05 -1.23912e-05 -1.35161e-05 -1.56559e-05 -8.8559e-06 -1.02079e-05 -1.10244e-05 -1.29121e-05 -1.02079e-05 -1.17414e-05 -1.29121e-05 -1.51397e-05 -1.10244e-05 -1.29121e-05 -1.42613e-05 -1.69177e-05 -1.29121e-05 -1.51397e-05 -1.69177e-05 -2.00725e-05 -1.17414e-05 -1.35161e-05 -1.51397e-05 -1.781e-05 -1.35161e-05 -1.56559e-05 -1.781e-05 -2.11076e-05 -1.51397e-05 -1.781e-05 -2.00725e-05 -2.38699e-05 -1.781e-05 -2.11076e-05 -2.38699e-05 -2.85513e-05 -1.18299e-05 -1.15792e-05 -1.23912e-05 -1.36865e-05 -1.15792e-05 -1.1057e-05 -1.36865e-05 -1.53428e-05 -1.23912e-05 -1.36865e-05 -1.56559e-05 -1.83551e-05 -1.36865e-05 -1.53428e-05 -1.83551e-05 -2.18686e-05 -1.1057e-05 -1.0705e-05 -1.53428e-05 -1.75819e-05 -1.0705e-05 -1.13372e-05 -1.75819e-05 -2.06532e-05 -1.53428e-05 -1.75819e-05 -2.18686e-05 -2.65117e-05 -1.75819e-05 -2.06532e-05 -2.65117e-05 -3.28323e-05 -1.56559e-05 -1.83551e-05 -2.11076e-05 -2.53059e-05 -1.83551e-05 -2.18686e-05 -2.53059e-05 -3.07645e-05 -2.11076e-05 -2.53059e-05 -2.85513e-05 -3.44639e-05 -2.53059e-05 -3.07645e-05 -3.44639e-05 -4.20512e-05 -2.18686e-05 -2.65117e-05 -3.07645e-05 -3.79337e-05 -2.65117e-05 -3.28323e-05 -3.79337e-05 -4.72953e-05 -3.07645e-05 -3.79337e-05 -4.20512e-05 -5.18031e-05 -3.79337e-05 -4.72953e-05 -5.18031e-05 -6.41512e-05 -1.42613e-05 -1.69177e-05 -1.84274e-05 -2.20933e-05 -1.69177e-05 -2.00725e-05 -2.20933e-05 -2.64327e-05 -1.84274e-05 -2.20933e-05 -2.34836e-05 -2.84111e-05 -2.20933e-05 -2.64327e-05 -2.84111e-05 -3.42176e-05 -2.00725e-05 -2.38699e-05 -2.64327e-05 -3.16308e-05 -2.38699e-05 -2.85513e-05 -3.16308e-05 -3.79773e-05 -2.64327e-05 -3.16308e-05 -3.42176e-05 -4.11246e-05 -3.16308e-05 -3.79773e-05 -4.11246e-05 -4.94519e-05 -2.34836e-05 -2.84111e-05 -2.94154e-05 -3.58622e-05 -2.84111e-05 -3.42176e-05 -3.58622e-05 -4.34321e-05 -2.94154e-05 -3.58622e-05 -3.61696e-05 -4.43812e-05 -3.58622e-05 -4.34321e-05 -4.43812e-05 -5.39961e-05 -3.42176e-05 -4.11246e-05 -4.34321e-05 -5.23706e-05 -4.11246e-05 -4.94519e-05 -5.23706e-05 -6.30009e-05 -4.34321e-05 -5.23706e-05 -5.39961e-05 -6.52648e-05 -5.23706e-05 -6.30009e-05 -6.52648e-05 -7.8479e-05 -2.85513e-05 -3.44639e-05 -3.79773e-05 -4.58691e-05 -3.44639e-05 -4.20512e-05 -4.58691e-05 -5.57795e-05 -3.79773e-05 -4.58691e-05 -4.94519e-05 -5.96071e-05 -4.58691e-05 -5.57795e-05 -5.96071e-05 -7.20323e-05 -4.20512e-05 -5.18031e-05 -5.57795e-05 -6.81797e-05 -5.18031e-05 -6.41512e-05 -6.81797e-05 -8.34069e-05 -5.57795e-05 -6.81797e-05 -7.20323e-05 -8.71044e-05 -6.81797e-05 -8.34069e-05 -8.71044e-05 -0.000105014 -4.94519e-05 -5.96071e-05 -6.30009e-05 -7.56928e-05 -5.96071e-05 -7.20323e-05 -7.56928e-05 -9.07848e-05 -6.30009e-05 -7.56928e-05 -7.8479e-05 -9.39149e-05 -7.56928e-05 -9.07848e-05 -9.39149e-05 -0.000111734 -7.20323e-05 -8.71044e-05 -9.07848e-05 -0.000108476 -8.71044e-05 -0.000105014 -0.000108476 -0.000128741 -9.07848e-05 -0.000108476 -0.000111734 -0.000131878 -0.000108476 -0.000128741 -0.000131878 -0.000154031 -1.0786e-06 -3.9816e-06 -7.0944e-07 -4.10977e-06 -3.9816e-06 -6.96707e-06 -4.10977e-06 -7.66586e-06 -7.0944e-07 -4.10977e-06 -4.62492e-07 -4.37702e-06 -4.10977e-06 -7.66586e-06 -4.37702e-06 -8.51004e-06 -6.96707e-06 -1.02077e-05 -7.66586e-06 -1.15845e-05 -1.02077e-05 -1.38823e-05 -1.15845e-05 -1.60734e-05 -7.66586e-06 -1.15845e-05 -8.51004e-06 -1.31094e-05 -1.15845e-05 -1.60734e-05 -1.31094e-05 -1.84221e-05 -4.62492e-07 -4.37702e-06 -3.00346e-07 -4.7212e-06 -4.37702e-06 -8.51004e-06 -4.7212e-06 -9.41656e-06 -3.00346e-07 -4.7212e-06 -1.95659e-07 -5.08703e-06 -4.7212e-06 -9.41656e-06 -5.08703e-06 -1.03028e-05 -8.51004e-06 -1.31094e-05 -9.41656e-06 -1.46784e-05 -1.31094e-05 -1.84221e-05 -1.46784e-05 -2.07978e-05 -9.41656e-06 -1.46784e-05 -1.03028e-05 -1.61783e-05 -1.46784e-05 -2.07978e-05 -1.61783e-05 -2.30484e-05 -1.38823e-05 -1.81635e-05 -1.60734e-05 -2.13346e-05 -1.81635e-05 -2.32097e-05 -2.13346e-05 -2.75585e-05 -1.60734e-05 -2.13346e-05 -1.84221e-05 -2.46896e-05 -2.13346e-05 -2.75585e-05 -2.46896e-05 -3.21426e-05 -2.32097e-05 -2.91648e-05 -2.75585e-05 -3.49238e-05 -2.91648e-