# vtk DataFile Version 3.0
#This file was generated by the deal.II library on 2022/11/17 at 0:09:32
ASCII
DATASET UNSTRUCTURED_GRID

POINTS 4096 double
0 0.5 0
0.03125 0.5 0
0 0.53125 0
0.03125 0.53125 0
0.03125 0.5 0
0.0625 0.5 0
0.03125 0.53125 0
0.0625 0.53125 0
0 0.53125 0
0.03125 0.53125 0
0 0.5625 0
0.03125 0.5625 0
0.03125 0.53125 0
0.0625 0.53125 0
0.03125 0.5625 0
0.0625 0.5625 0
0.0625 0.5 0
0.09375 0.5 0
0.0625 0.53125 0
0.09375 0.53125 0
0.09375 0.5 0
0.125 0.5 0
0.09375 0.53125 0
0.125 0.53125 0
0.0625 0.53125 0
0.09375 0.53125 0
0.0625 0.5625 0
0.09375 0.5625 0
0.09375 0.53125 0
0.125 0.53125 0
0.09375 0.5625 0
0.125 0.5625 0
0 0.5625 0
0.03125 0.5625 0
0 0.59375 0
0.03125 0.59375 0
0.03125 0.5625 0
0.0625 0.5625 0
0.03125 0.59375 0
0.0625 0.59375 0
0 0.59375 0
0.03125 0.59375 0
0 0.625 0
0.03125 0.625 0
0.03125 0.59375 0
0.0625 0.59375 0
0.03125 0.625 0
0.0625 0.625 0
0.0625 0.5625 0
0.09375 0.5625 0
0.0625 0.59375 0
0.09375 0.59375 0
0.09375 0.5625 0
0.125 0.5625 0
0.09375 0.59375 0
0.125 0.59375 0
0.0625 0.59375 0
0.09375 0.59375 0
0.0625 0.625 0
0.09375 0.625 0
0.09375 0.59375 0
0.125 0.59375 0
0.09375 0.625 0
0.125 0.625 0
0.125 0.5 0
0.15625 0.5 0
0.125 0.53125 0
0.15625 0.53125 0
0.15625 0.5 0
0.1875 0.5 0
0.15625 0.53125 0
0.1875 0.53125 0
0.125 0.53125 0
0.15625 0.53125 0
0.125 0.5625 0
0.15625 0.5625 0
0.15625 0.53125 0
0.1875 0.53125 0
0.15625 0.5625 0
0.1875 0.5625 0
0.1875 0.5 0
0.21875 0.5 0
0.1875 0.53125 0
0.21875 0.53125 0
0.21875 0.5 0
0.25 0.5 0
0.21875 0.53125 0
0.25 0.53125 0
0.1875 0.53125 0
0.21875 0.53125 0
0.1875 0.5625 0
0.21875 0.5625 0
0.21875 0.53125 0
0.25 0.53125 0
0.21875 0.5625 0
0.25 0.5625 0
0.125 0.5625 0
0.15625 0.5625 0
0.125 0.59375 0
0.15625 0.59375 0
0.15625 0.5625 0
0.1875 0.5625 0
0.15625 0.59375 0
0.1875 0.59375 0
0.125 0.59375 0
0.15625 0.59375 0
0.125 0.625 0
0.15625 0.625 0
0.15625 0.59375 0
0.1875 0.59375 0
0.15625 0.625 0
0.1875 0.625 0
0.1875 0.5625 0
0.21875 0.5625 0
0.1875 0.59375 0
0.21875 0.59375 0
0.21875 0.5625 0
0.25 0.5625 0
0.21875 0.59375 0
0.25 0.59375 0
0.1875 0.59375 0
0.21875 0.59375 0
0.1875 0.625 0
0.21875 0.625 0
0.21875 0.59375 0
0.25 0.59375 0
0.21875 0.625 0
0.25 0.625 0
0 0.625 0
0.03125 0.625 0
0 0.65625 0
0.03125 0.65625 0
0.03125 0.625 0
0.0625 0.625 0
0.03125 0.65625 0
0.0625 0.65625 0
0 0.65625 0
0.03125 0.65625 0
0 0.6875 0
0.03125 0.6875 0
0.03125 0.65625 0
0.0625 0.65625 0
0.03125 0.6875 0
0.0625 0.6875 0
0.0625 0.625 0
0.09375 0.625 0
0.0625 0.65625 0
0.09375 0.65625 0
0.09375 0.625 0
0.125 0.625 0
0.09375 0.65625 0
0.125 0.65625 0
0.0625 0.65625 0
0.09375 0.65625 0
0.0625 0.6875 0
0.09375 0.6875 0
0.09375 0.65625 0
0.125 0.65625 0
0.09375 0.6875 0
0.125 0.6875 0
0 0.6875 0
0.03125 0.6875 0
0 0.71875 0
0.03125 0.71875 0
0.03125 0.6875 0
0.0625 0.6875 0
0.03125 0.71875 0
0.0625 0.71875 0
0 0.71875 0
0.03125 0.71875 0
0 0.75 0
0.03125 0.75 0
0.03125 0.71875 0
0.0625 0.71875 0
0.03125 0.75 0
0.0625 0.75 0
0.0625 0.6875 0
0.09375 0.6875 0
0.0625 0.71875 0
0.09375 0.71875 0
0.09375 0.6875 0
0.125 0.6875 0
0.09375 0.71875 0
0.125 0.71875 0
0.0625 0.71875 0
0.09375 0.71875 0
0.0625 0.75 0
0.09375 0.75 0
0.09375 0.71875 0
0.125 0.71875 0
0.09375 0.75 0
0.125 0.75 0
0.125 0.625 0
0.15625 0.625 0
0.125 0.65625 0
0.15625 0.65625 0
0.15625 0.625 0
0.1875 0.625 0
0.15625 0.65625 0
0.1875 0.65625 0
0.125 0.65625 0
0.15625 0.65625 0
0.125 0.6875 0
0.15625 0.6875 0
0.15625 0.65625 0
0.1875 0.65625 0
0.15625 0.6875 0
0.1875 0.6875 0
0.1875 0.625 0
0.21875 0.625 0
0.1875 0.65625 0
0.21875 0.65625 0
0.21875 0.625 0
0.25 0.625 0
0.21875 0.65625 0
0.25 0.65625 0
0.1875 0.65625 0
0.21875 0.65625 0
0.1875 0.6875 0
0.21875 0.6875 0
0.21875 0.65625 0
0.25 0.65625 0
0.21875 0.6875 0
0.25 0.6875 0
0.125 0.6875 0
0.15625 0.6875 0
0.125 0.71875 0
0.15625 0.71875 0
0.15625 0.6875 0
0.1875 0.6875 0
0.15625 0.71875 0
0.1875 0.71875 0
0.125 0.71875 0
0.15625 0.71875 0
0.125 0.75 0
0.15625 0.75 0
0.15625 0.71875 0
0.1875 0.71875 0
0.15625 0.75 0
0.1875 0.75 0
0.1875 0.6875 0
0.21875 0.6875 0
0.1875 0.71875 0
0.21875 0.71875 0
0.21875 0.6875 0
0.25 0.6875 0
0.21875 0.71875 0
0.25 0.71875 0
0.1875 0.71875 0
0.21875 0.71875 0
0.1875 0.75 0
0.21875 0.75 0
0.21875 0.71875 0
0.25 0.71875 0
0.21875 0.75 0
0.25 0.75 0
0.25 0.5 0
0.28125 0.5 0
0.25 0.53125 0
0.28125 0.53125 0
0.28125 0.5 0
0.3125 0.5 0
0.28125 0.53125 0
0.3125 0.53125 0
0.25 0.53125 0
0.28125 0.53125 0
0.25 0.5625 0
0.28125 0.5625 0
0.28125 0.53125 0
0.3125 0.53125 0
0.28125 0.5625 0
0.3125 0.5625 0
0.3125 0.5 0
0.34375 0.5 0
0.3125 0.53125 0
0.34375 0.53125 0
0.34375 0.5 0
0.375 0.5 0
0.34375 0.53125 0
0.375 0.53125 0
0.3125 0.53125 0
0.34375 0.53125 0
0.3125 0.5625 0
0.34375 0.5625 0
0.34375 0.53125 0
0.375 0.53125 0
0.34375 0.5625 0
0.375 0.5625 0
0.25 0.5625 0
0.28125 0.5625 0
0.25 0.59375 0
0.28125 0.59375 0
0.28125 0.5625 0
0.3125 0.5625 0
0.28125 0.59375 0
0.3125 0.59375 0
0.25 0.59375 0
0.28125 0.59375 0
0.25 0.625 0
0.28125 0.625 0
0.28125 0.59375 0
0.3125 0.59375 0
0.28125 0.625 0
0.3125 0.625 0
0.3125 0.5625 0
0.34375 0.5625 0
0.3125 0.59375 0
0.34375 0.59375 0
0.34375 0.5625 0
0.375 0.5625 0
0.34375 0.59375 0
0.375 0.59375 0
0.3125 0.59375 0
0.34375 0.59375 0
0.3125 0.625 0
0.34375 0.625 0
0.34375 0.59375 0
0.375 0.59375 0
0.34375 0.625 0
0.375 0.625 0
0.375 0.5 0
0.40625 0.5 0
0.375 0.53125 0
0.40625 0.53125 0
0.40625 0.5 0
0.4375 0.5 0
0.40625 0.53125 0
0.4375 0.53125 0
0.375 0.53125 0
0.40625 0.53125 0
0.375 0.5625 0
0.40625 0.5625 0
0.40625 0.53125 0
0.4375 0.53125 0
0.40625 0.5625 0
0.4375 0.5625 0
0.4375 0.5 0
0.46875 0.5 0
0.4375 0.53125 0
0.46875 0.53125 0
0.46875 0.5 0
0.5 0.5 0
0.46875 0.53125 0
0.5 0.53125 0
0.4375 0.53125 0
0.46875 0.53125 0
0.4375 0.5625 0
0.46875 0.5625 0
0.46875 0.53125 0
0.5 0.53125 0
0.46875 0.5625 0
0.5 0.5625 0
0.375 0.5625 0
0.40625 0.5625 0
0.375 0.59375 0
0.40625 0.59375 0
0.40625 0.5625 0
0.4375 0.5625 0
0.40625 0.59375 0
0.4375 0.59375 0
0.375 0.59375 0
0.40625 0.59375 0
0.375 0.625 0
0.40625 0.625 0
0.40625 0.59375 0
0.4375 0.59375 0
0.40625 0.625 0
0.4375 0.625 0
0.4375 0.5625 0
0.46875 0.5625 0
0.4375 0.59375 0
0.46875 0.59375 0
0.46875 0.5625 0
0.5 0.5625 0
0.46875 0.59375 0
0.5 0.59375 0
0.4375 0.59375 0
0.46875 0.59375 0
0.4375 0.625 0
0.46875 0.625 0
0.46875 0.59375 0
0.5 0.59375 0
0.46875 0.625 0
0.5 0.625 0
0.25 0.625 0
0.28125 0.625 0
0.25 0.65625 0
0.28125 0.65625 0
0.28125 0.625 0
0.3125 0.625 0
0.28125 0.65625 0
0.3125 0.65625 0
0.25 0.65625 0
0.28125 0.65625 0
0.25 0.6875 0
0.28125 0.6875 0
0.28125 0.65625 0
0.3125 0.65625 0
0.28125 0.6875 0
0.3125 0.6875 0
0.3125 0.625 0
0.34375 0.625 0
0.3125 0.65625 0
0.34375 0.65625 0
0.34375 0.625 0
0.375 0.625 0
0.34375 0.65625 0
0.375 0.65625 0
0.3125 0.65625 0
0.34375 0.65625 0
0.3125 0.6875 0
0.34375 0.6875 0
0.34375 0.65625 0
0.375 0.65625 0
0.34375 0.6875 0
0.375 0.6875 0
0.25 0.6875 0
0.28125 0.6875 0
0.25 0.71875 0
0.28125 0.71875 0
0.28125 0.6875 0
0.3125 0.6875 0
0.28125 0.71875 0
0.3125 0.71875 0
0.25 0.71875 0
0.28125 0.71875 0
0.25 0.75 0
0.28125 0.75 0
0.28125 0.71875 0
0.3125 0.71875 0
0.28125 0.75 0
0.3125 0.75 0
0.3125 0.6875 0
0.34375 0.6875 0
0.3125 0.71875 0
0.34375 0.71875 0
0.34375 0.6875 0
0.375 0.6875 0
0.34375 0.71875 0
0.375 0.71875 0
0.3125 0.71875 0
0.34375 0.71875 0
0.3125 0.75 0
0.34375 0.75 0
0.34375 0.71875 0
0.375 0.71875 0
0.34375 0.75 0
0.375 0.75 0
0.375 0.625 0
0.40625 0.625 0
0.375 0.65625 0
0.40625 0.65625 0
0.40625 0.625 0
0.4375 0.625 0
0.40625 0.65625 0
0.4375 0.65625 0
0.375 0.65625 0
0.40625 0.65625 0
0.375 0.6875 0
0.40625 0.6875 0
0.40625 0.65625 0
0.4375 0.65625 0
0.40625 0.6875 0
0.4375 0.6875 0
0.4375 0.625 0
0.46875 0.625 0
0.4375 0.65625 0
0.46875 0.65625 0
0.46875 0.625 0
0.5 0.625 0
0.46875 0.65625 0
0.5 0.65625 0
0.4375 0.65625 0
0.46875 0.65625 0
0.4375 0.6875 0
0.46875 0.6875 0
0.46875 0.65625 0
0.5 0.65625 0
0.46875 0.6875 0
0.5 0.6875 0
0.375 0.6875 0
0.40625 0.6875 0
0.375 0.71875 0
0.40625 0.71875 0
0.40625 0.6875 0
0.4375 0.6875 0
0.40625 0.71875 0
0.4375 0.71875 0
0.375 0.71875 0
0.40625 0.71875 0
0.375 0.75 0
0.40625 0.75 0
0.40625 0.71875 0
0.4375 0.71875 0
0.40625 0.75 0
0.4375 0.75 0
0.4375 0.6875 0
0.46875 0.6875 0
0.4375 0.71875 0
0.46875 0.71875 0
0.46875 0.6875 0
0.5 0.6875 0
0.46875 0.71875 0
0.5 0.71875 0
0.4375 0.71875 0
0.46875 0.71875 0
0.4375 0.75 0
0.46875 0.75 0
0.46875 0.71875 0
0.5 0.71875 0
0.46875 0.75 0
0.5 0.75 0
0 0.75 0
0.03125 0.75 0
0 0.78125 0
0.03125 0.78125 0
0.03125 0.75 0
0.0625 0.75 0
0.03125 0.78125 0
0.0625 0.78125 0
0 0.78125 0
0.03125 0.78125 0
0 0.8125 0
0.03125 0.8125 0
0.03125 0.78125 0
0.0625 0.78125 0
0.03125 0.8125 0
0.0625 0.8125 0
0.0625 0.75 0
0.09375 0.75 0
0.0625 0.78125 0
0.09375 0.78125 0
0.09375 0.75 0
0.125 0.75 0
0.09375 0.78125 0
0.125 0.78125 0
0.0625 0.78125 0
0.09375 0.78125 0
0.0625 0.8125 0
0.09375 0.8125 0
0.09375 0.78125 0
0.125 0.78125 0
0.09375 0.8125 0
0.125 0.8125 0
0 0.8125 0
0.03125 0.8125 0
0 0.84375 0
0.03125 0.84375 0
0.03125 0.8125 0
0.0625 0.8125 0
0.03125 0.84375 0
0.0625 0.84375 0
0 0.84375 0
0.03125 0.84375 0
0 0.875 0
0.03125 0.875 0
0.03125 0.84375 0
0.0625 0.84375 0
0.03125 0.875 0
0.0625 0.875 0
0.0625 0.8125 0
0.09375 0.8125 0
0.0625 0.84375 0
0.09375 0.84375 0
0.09375 0.8125 0
0.125 0.8125 0
0.09375 0.84375 0
0.125 0.84375 0
0.0625 0.84375 0
0.09375 0.84375 0
0.0625 0.875 0
0.09375 0.875 0
0.09375 0.84375 0
0.125 0.84375 0
0.09375 0.875 0
0.125 0.875 0
0.125 0.75 0
0.15625 0.75 0
0.125 0.78125 0
0.15625 0.78125 0
0.15625 0.75 0
0.1875 0.75 0
0.15625 0.78125 0
0.1875 0.78125 0
0.125 0.78125 0
0.15625 0.78125 0
0.125 0.8125 0
0.15625 0.8125 0
0.15625 0.78125 0
0.1875 0.78125 0
0.15625 0.8125 0
0.1875 0.8125 0
0.1875 0.75 0
0.21875 0.75 0
0.1875 0.78125 0
0.21875 0.78125 0
0.21875 0.75 0
0.25 0.75 0
0.21875 0.78125 0
0.25 0.78125 0
0.1875 0.78125 0
0.21875 0.78125 0
0.1875 0.8125 0
0.21875 0.8125 0
0.21875 0.78125 0
0.25 0.78125 0
0.21875 0.8125 0
0.25 0.8125 0
0.125 0.8125 0
0.15625 0.8125 0
0.125 0.84375 0
0.15625 0.84375 0
0.15625 0.8125 0
[...]
POINT_DATA 4096
SCALARS x_dis double 1
LOOKUP_TABLE default
0.000167212 0.000145288 0.000191892 0.000168564 0.000145288 0.0001256 0.000168564 0.000147185 0.000191892 0.000168564 0.000218053 0.000193622 0.000168564 0.000147185 0.000193622 0.000170742 0.0001256 0.000108188 0.000147185 0.000127873 0.000108188 9.29684e-05 0.000127873 0.000110649 0.000147185 0.000127873 0.000170742 0.000149609 0.000127873 0.000110649 0.000149609 0.000130349 0.000218053 0.000193622 0.000245294 0.000220101 0.000193622 0.000170742 0.000220101 0.000195962 0.000245294 0.000220101 0.000273057 0.000247453 0.000220101 0.000195962 0.000247453 0.000222335 0.000170742 0.000149609 0.000195962 0.000173148 0.000149609 0.000130349 0.000173148 0.000151892 0.000195962 0.000173148 0.000222335 0.000198044 0.000173148 0.000151892 0.000198044 0.000174915 9.29684e-05 7.97489e-05 0.000110649 9.54118e-05 7.97489e-05 6.82651e-05 9.54118e-05 8.19653e-05 0.000110649 9.54118e-05 0.000130349 0.000112971 9.54118e-05 8.19653e-05 0.000112971 9.73591e-05 6.82651e-05 5.82307e-05 8.19653e-05 7.00563e-05 5.82307e-05 4.9388e-05 7.00563e-05 5.9425e-05 8.19653e-05 7.00563e-05 9.73591e-05 8.33046e-05 7.00563e-05 5.9425e-05 8.33046e-05 7.05423e-05 0.000130349 0.000112971 0.000151892 0.000132319 0.000112971 9.73591e-05 0.000132319 0.000114411 0.000151892 0.000132319 0.000174915 0.000153187 0.000132319 0.000114411 0.000153187 0.000132954 9.73591e-05 8.33046e-05 0.000114411 9.80199e-05 8.33046e-05 7.05423e-05 9.80199e-05 8.28906e-05 0.000114411 9.80199e-05 0.000132954 0.000114146 9.80199e-05 8.28906e-05 0.000114146 9.65503e-05 0.000273057 0.000247453 0.000300625 0.000274932 0.000247453 0.000222335 0.000274932 0.00024913 0.000300625 0.000274932 0.000327157 0.000301633 0.000274932 0.00024913 0.000301633 0.000275442 0.000222335 0.000198044 0.00024913 0.000223627 0.000198044 0.000174915 0.000223627 0.00019884 0.00024913 0.000223627 0.000275442 0.000249041 0.000223627 0.00019884 0.000249041 0.000222901 0.000327157 0.000301633 0.000351796 0.000326606 0.000301633 0.000275442 0.000326606 0.000300294 0.000351796 0.000326606 0.000373812 0.000349023 0.000326606 0.000300294 0.000349023 0.000322811 0.000275442 0.000249041 0.000300294 0.000273338 0.000249041 0.000222901 0.000273338 0.000246217 0.000300294 0.000273338 0.000322811 0.000295628 0.000273338 0.000246217 0.000295628 0.000267924 0.000174915 0.000153187 0.00019884 0.000175112 0.000153187 0.000132954 0.000175112 0.000152643 0.00019884 0.000175112 0.000222901 0.000197438 0.000175112 0.000152643 0.000197438 0.00017295 0.000132954 0.000114146 0.000152643 0.000131464 0.000114146 9.65503e-05 0.000131464 0.000111438 0.000152643 0.000131464 0.00017295 0.000149572 0.000131464 0.000111438 0.000149572 0.000127268 0.000222901 0.000197438 0.000246217 0.000219384 0.000197438 0.00017295 0.000219384 0.000193204 0.000246217 0.000219384 0.000267924 0.000240138 0.000219384 0.000193204 0.000240138 0.000212667 0.00017295 0.000149572 0.000193204 0.000167907 0.000149572 0.000127268 0.000167907 0.000143568 0.000193204 0.000167907 0.000212667 0.000185814 0.000167907 0.000143568 0.000185814 0.000159751 4.9388e-05 4.15517e-05 5.9425e-05 4.98493e-05 4.15517e-05 3.46443e-05 4.98493e-05 4.11762e-05 5.9425e-05 4.98493e-05 7.05423e-05 5.87901e-05 4.98493e-05 4.11762e-05 5.87901e-05 4.77663e-05 3.46443e-05 2.87288e-05 4.11762e-05 3.33336e-05 2.87288e-05 2.40515e-05 3.33336e-05 2.63131e-05 4.11762e-05 3.33336e-05 4.77663e-05 3.71679e-05 3.33336e-05 2.63131e-05 3.71679e-05 2.65749e-05 7.05423e-05 5.87901e-05 8.28906e-05 6.86959e-05 5.87901e-05 4.77663e-05 6.86959e-05 5.50474e-05 8.28906e-05 6.86959e-05 9.65503e-05 7.98389e-05 6.86959e-05 5.50474e-05 7.98389e-05 6.35888e-05 4.77663e-05 3.71679e-05 5.50474e-05 4.14722e-05 3.71679e-05 2.65749e-05 4.14722e-05 2.73351e-05 5.50474e-05 4.14722e-05 6.35888e-05 4.72898e-05 4.14722e-05 2.73351e-05 4.72898e-05 3.03496e-05 2.40515e-05 2.11575e-05 2.63131e-05 2.00607e-05 2.11575e-05 2.11348e-05 2.00607e-05 1.41159e-05 2.63131e-05 2.00607e-05 2.65749e-05 1.52e-05 2.00607e-05 1.41159e-05 1.52e-05 1.26717e-06 2.11348e-05 2.77391e-05 1.41159e-05 4.90669e-06 2.77391e-05 4.17185e-05 4.90669e-06 -2.22563e-05 1.41159e-05 4.90669e-06 1.26717e-06 -1.89707e-05 4.90669e-06 -2.22563e-05 -1.89707e-05 -4.16414e-05 2.65749e-05 1.52e-05 2.73351e-05 1.17187e-05 1.52e-05 1.26717e-06 1.17187e-05 -6.59607e-06 2.73351e-05 1.17187e-05 3.03496e-05 1.21616e-05 1.17187e-05 -6.59607e-06 1.21616e-05 -7.4558e-06 1.26717e-06 -1.89707e-05 -6.59607e-06 -2.73381e-05 -1.89707e-05 -4.16414e-05 -2.73381e-05 -4.73792e-05 -6.59607e-06 -2.73381e-05 -7.4558e-06 -2.76407e-05 -2.73381e-05 -4.73792e-05 -2.76407e-05 -4.60807e-05 9.65503e-05 7.98389e-05 0.000111438 9.22877e-05 7.98389e-05 6.35888e-05 9.22877e-05 7.36301e-05 0.000111438 9.22877e-05 0.000127268 0.00010585 9.22877e-05 7.36301e-05 0.00010585 8.50288e-05 6.35888e-05 4.72898e-05 7.36301e-05 5.50239e-05 4.72898e-05 3.03496e-05 5.50239e-05 3.60373e-05 7.36301e-05 5.50239e-05 8.50288e-05 6.44745e-05 5.50239e-05 3.60373e-05 6.44745e-05 4.39137e-05 0.000127268 0.00010585 0.000143568 0.000120112 0.00010585 8.50288e-05 0.000120112 9.73603e-05 0.000143568 0.000120112 0.000159751 0.00013452 0.000120112 9.73603e-05 0.00013452 0.000110055 8.50288e-05 6.44745e-05 9.73603e-05 7.50997e-05 6.44745e-05 4.39137e-05 7.50997e-05 5.31642e-05 9.73603e-05 7.50997e-05 0.000110055 8.62456e-05 7.50997e-05 5.31642e-05 8.62456e-05 6.30004e-05 3.03496e-05 1.21616e-05 3.60373e-05 1.64094e-05 1.21616e-05 -7.4558e-06 1.64094e-05 -3.69657e-06 3.60373e-05 1.64094e-05 4.39137e-05 2.32544e-05 1.64094e-05 -3.69657e-06 2.32544e-05 2.72831e-06 -7.4558e-06 -2.76407e-05 -3.69657e-06 -2.34307e-05 -2.76407e-05 -4.60807e-05 -2.34307e-05 -4.13485e-05 -3.69657e-06 -2.34307e-05 2.72831e-06 -1.70463e-05 -2.34307e-05 -4.13485e-05 -1.70463e-05 -3.52013e-05 4.39137e-05 2.32544e-05 5.31642e-05 3.15284e-05 2.32544e-05 2.72831e-06 3.15284e-05 1.03736e-05 5.31642e-05 3.15284e-05 6.30004e-05 4.03093e-05 3.15284e-05 1.03736e-05 4.03093e-05 1.82748e-05 2.72831e-06 -1.70463e-05 1.03736e-05 -9.91366e-06 -1.70463e-05 -3.52013e-05 -9.91366e-06 -2.8852e-05 1.03736e-05 -9.91366e-06 1.82748e-05 -2.89858e-06 -9.91366e-06 -2.8852e-05 -2.89858e-06 -2.29785e-05 0.000373812 0.000349023 0.000392742 0.000368339 0.000349023 0.000322811 0.000368339 0.000342378 0.000392742 0.000368339 0.000408453 0.000384368 0.000368339 0.000342378 0.000384368 0.000358728 0.000322811 0.000295628 0.000342378 0.000315245 0.000295628 0.000267924 0.000315245 0.000287318 0.000342378 0.000315245 0.000358728 0.000331827 0.000315245 0.000287318 0.000331827 0.000303956 0.000408453 0.000384368 0.000421089 0.000397233 0.000384368 0.000358728 0.000397233 0.00037191 0.000421089 0.000397233 0.000430941 0.000407235 0.000397233 0.00037191 0.000407235 0.000382177 0.000358728 0.000331827 0.00037191 0.000345321 0.000331827 0.000303956 0.000345321 0.000317669 0.00037191 0.000345321 0.000382177 0.000355893 0.000345321 0.000317669 0.000355893 0.000328516 0.000267924 0.000240138 0.000287318 0.000258991 0.000240138 0.000212667 0.000258991 0.000230651 0.000287318 0.000258991 0.000303956 0.000275434 0.000258991 0.000230651 0.000275434 0.000246608 0.000212667 0.000185814 0.000230651 0.000202638 0.000185814 0.000159751 0.000202638 0.000175202 0.000230651 0.000202638 0.000246608 0.000217819 0.000202638 0.000175202 0.000217819 0.000189361 0.000303956 0.000275434 0.000317669 0.000289195 0.000275434 0.000246608 0.000289195 0.000260183 0.000317669 0.000289195 0.000328516 0.000300215 0.000289195 0.000260183 0.000300215 0.000271206 0.000246608 0.000217819 0.000260183 0.000230944 0.000217819 0.000189361 0.000230944 0.000201784 0.000260183 0.000230944 0.000271206 0.000241756 0.000230944 0.000201784 0.000241756 0.000212156 0.000430941 0.000407235 0.00043831 0.000414696 0.000407235 0.000382177 0.000414696 0.000389835 0.00043831 0.000414696 0.000443429 0.000419869 0.000414696 0.000389835 0.000419869 0.000395139 0.000382177 0.000355893 0.000389835 0.000363801 0.000355893 0.000328516 0.000363801 0.000336678 0.000389835 0.000363801 0.000395139 0.000369283 0.000363801 0.000336678 0.000369283 0.000342352 0.000443429 0.000419869 0.000446448 0.000422916 0.000419869 0.000395139 0.000422916 0.000398259 0.000446448 0.000422916 0.000447447 0.000423923 0.000422916 0.000398259 0.000423923 0.000399289 0.000395139 0.000369283 0.000398259 0.000372506 0.000369283 0.000342352 0.000372506 0.000345691 0.000398259 0.000372506 0.000399289 0.000373569 0.000372506 0.000345691 0.000373569 0.000346793 0.000328516 0.000300215 0.000336678 0.000308578 0.000300215 0.000271206 0.000308578 0.000279661 0.000336678 0.000308578 0.000342352 0.000314421 0.000308578 0.000279661 0.000314421 0.000285611 0.000271206 0.000241756 0.000279661 0.000250145 0.000241756 0.000212156 0.000250145 0.000220296 0.000279661 0.000250145 0.000285611 0.0002561 0.000250145 0.000220296 0.0002561 0.000226123 0.000342352 0.000314421 0.000345691 0.000317871 0.000314421 0.000285611 0.000317871 0.000289141 0.000345691 0.000317871 0.000346793 0.000319012 0.000317871 0.000289141 0.000319012 0.00029031 0.000285611 0.0002561 0.000289141 0.000259652 0.0002561 0.000226123 0.000259652 0.000229618 0.000289141 0.000259652 0.00029031 0.000260831 0.000259652 0.000229618 0.000260831 0.000230781 0.000159751 0.00013452 0.000175202 0.000148482 0.00013452 0.000110055 0.000148482 0.000122519 0.000175202 0.000148482 0.000189361 0.000161449 0.000148482 0.000122519 0.000161449 0.000134212 0.000110055 8.62456e-05 0.000122519 9.72926e-05 8.62456e-05 6.30004e-05 9.72926e-05 7.27657e-05 0.000122519 9.72926e-05 0.000134212 0.000107707 9.72926e-05 7.27657e-05 0.000107707 8.19473e-05 0.000189361 0.000161449 0.000201784 0.000172966 0.000161449 0.000134212 0.000172966 0.000144686 0.000201784 0.000172966 0.000212156 0.000182691 0.000172966 0.000144686 0.000182691 0.000153599 0.000134212 0.000107707 0.000144686 0.000117067 0.000107707 8.19473e-05 0.000117067 9.01698e-05 0.000144686 0.000117067 0.000153599 0.000125055 0.000117067 9.01698e-05 0.000125055 9.71648e-05 6.30004e-05 4.03093e-05 7.27657e-05 4.89291e-05 4.03093e-05 1.82748e-05 4.89291e-05 2.58208e-05 7.27657e-05 4.89291e-05 8.19473e-05 5.69292e-05 4.89291e-05 2.58208e-05 5.69292e-05 3.26473e-05 1.82748e-05 -2.89858e-06 2.58208e-05 3.51759e-06 -2.89858e-06 -2.29785e-05 3.51759e-06 -1.79088e-05 2.58208e-05 3.51759e-06 3.26473e-05 9.09718e-06 3.51759e-06 -1.79088e-05 9.09718e-06 -1.37478e-05 8.19473e-05 5.69292e-05 9.01698e-05 6.40053e-05 5.69292e-05 3.26473e-05 6.40053e-05 3.855e-05 9.01698e-05 6.40053e-05 9.71648e-05 6.99631e-05 6.40053e-05 3.855e-05 6.99631e-05 4.34264e-05 3.26473e-05 9.09718e-06 3.855e-05 1.37528e-05 9.09718e-06 -1.37478e-05 1.37528e-05 -1.04714e-05 3.855e-05 1.37528e-05 4.34264e-05 1.74809e-05 1.37528e-05 -1.04714e-05 1.74809e-05 -7.99102e-06 0.000212156 0.000182691 0.000220296 0.000190396 0.000182691 0.000153599 0.000190396 0.000160708 0.000220296 0.000190396 0.000226123 0.000195953 0.000190396 0.000160708 0.000195953 0.000165863 0.000153599 0.000125055 0.000160708 0.000131445 0.000125055 9.71648e-05 0.000131445 0.00010275 0.000160708 0.000131445 0.000165863 0.00013609 0.000131445 0.00010275 0.00013609 0.000106806 0.000226123 0.000195953 0.000229618 0.000199301 0.000195953 0.000165863 0.000199301 0.00016898 0.000229618 0.000199301 0.000230781 0.000200419 0.000199301 0.00016898 0.000200419 0.000170023 0.000165863 0.00013609 0.00016898 0.000138905 0.00013609 0.000106806 0.000138905 0.000109264 0.00016898 0.000138905 0.000170023 0.000139848 0.000138905 0.000109264 0.000139848 0.000110087 9.71648e-05 6.99631e-05 0.00010275 7.46836e-05 6.99631e-05 4.34264e-05 7.46836e-05 4.72323e-05 0.00010275 7.46836e-05 0.000106806 7.80943e-05 7.46836e-05 4.72323e-05 7.80943e-05 4.9952e-05 4.34264e-05 1.74809e-05 4.72323e-05 2.03152e-05 1.74809e-05 -7.99102e-06 2.03152e-05 -6.20062e-06 4.72323e-05 2.03152e-05 4.9952e-05 2.22998e-05 2.03152e-05 -6.20062e-06 2.22998e-05 -5.00065e-06 0.000106806 7.80943e-05 0.000109264 8.01542e-05 7.80943e-05 4.9952e-05 8.01542e-05 5.15826e-05 0.000109264 8.01542e-05 0.000110087 8.08429e-05 8.01542e-05 5.15826e-05 8.08429e-05 5.21258e-05 4.9952e-05 2.22998e-05 5.15826e-05 2.34731e-05 2.22998e-05 -5.00065e-06 2.34731e-05 -4.31347e-06 5.15826e-05 2.34731e-05 5.21258e-05 2.38611e-05 2.34731e-05 -4.31347e-06 2.38611e-05 -4.09003e-06 4.17185e-05 3.68923e-05 -2.22563e-05 -3.74509e-05 3.68923e-05 1.43186e-05 -3.74509e-05 -3.30929e-05 -2.22563e-05 -3.74509e-05 -4.16414e-05 -5.6342e-05 -3.74509e-05 -3.30929e-05 -5.6342e-05 -5.91932e-05 1.43186e-05 -9.8688e-06 -3.30929e-05 -3.68148e-05 -9.8688e-06 -3.02587e-05 -3.68148e-05 -4.40198e-05 -3.30929e-05 -3.68148e-05 -5.91932e-05 -5.76246e-05 -3.68148e-05 -4.40198e-05 -5.76246e-05 -5.84892e-05 -4.16414e-05 -5.6342e-05 -4.73792e-05 -6.14296e-05 -5.6342e-05 -5.91932e-05 -6.14296e-05 -6.75645e-05 -4.73792e-05 -6.14296e-05 -4.60807e-05 -6.01433e-05 -6.14296e-05 -6.75645e-05 -6.01433e-05 -6.88256e-05 -5.91932e-05 -5.76246e-05 -6.75645e-05 -6.89019e-05 -5.76246e-05 -5.84892e-05 -6.89019e-05 -6.94361e-05 -6.75645e-05 -6.89019e-05 -6.88256e-05 -7.3499e-05 -6.89019e-05 -6.94361e-05 -7.3499e-05 -7.66442e-05 -3.02587e-05 -4.68031e-05 -4.40198e-05 -5.22437e-05 -4.68031e-05 -5.96106e-05 -5.22437e-05 -6.02468e-05 -4.40198e-05 -5.22437e-05 -5.84892e-05 -6.16738e-05 -5.22437e-05 -6.02468e-05 -6.16738e-05 -6.6472e-05 -5.96106e-05 -6.9005e-05 -6.02468e-05 -6.74703e-05 -6.9005e-05 -7.53168e-05 -6.74703e-05 -7.37006e-05 -6.02468e-05 -6.74703e-05 -6.6472e-05 -7.2252e-05 -6.74703e-05 -7.37006e-05 -7.2252e-05 -7.86052e-05 -5.84892e-05 -6.16738e-05 -6.94361e-05 -7.1476e-05 -6.16738e-05 -6.6472e-05 -7.1476e-05 -7.54086e-05 -6.94361e-05 -7.1476e-05 -7.66442e-05 -8.02474e-05 -7.1476e-05 -7.54086e-05 -8.02474e-05 -8.53641e-05 -6.6472e-05 -7.2252e-05 -7.54086e-05 -8.1088e-05 -7.2252e-05 -7.86052e-05 -8.1088e-05 -8.82486e-05 -7.54086e-05 -8.1088e-05 -8.53641e-05 -9.23228e-05 -8.1088e-05 -8.82486e-05 -9.23228e-05 -0.000101128 -4.60807e-05 -6.01433e-05 -4.13485e-05 -5.60352e-05 -6.01433e-05 -6.88256e-05 -5.60352e-05 -6.69934e-05 -4.13485e-05 -5.60352e-05 -3.52013e-05 -5.09904e-05 -5.60352e-05 -6.69934e-05 -5.09904e-05 -6.41967e-05 -6.88256e-05 -7.3499e-05 -6.69934e-05 -7.49694e-05 -7.3499e-05 -7.66442e-05 -7.49694e-05 -8.1464e-05 -6.69934e-05 -7.49694e-05 -6.41967e-05 -7.52948e-05 -7.49694e-05 -8.1464e-05 -7.52948e-05 -8.52536e-05 -3.52013e-05 -5.09904e-05 -2.8852e-05 -4.60718e-05 -5.09904e-05 -6.41967e-05 -4.60718e-05 -6.15232e-05 -2.8852e-05 -4.60718e-05 -2.29785e-05 -4.18227e-05 -4.60718e-05 -6.15232e-05 -4.18227e-05 -5.94838e-05 -6.41967e-05 -7.52948e-05 -6.15232e-05 -7.55582e-05 -7.52948e-05 -8.52536e-05 -7.55582e-05 -8.88405e-05 -6.15232e-05 -7.55582e-05 -5.94838e-05 -7.62523e-05 -7.55582e-05 -8.88405e-05 -7.62523e-05 -9.26134e-05 -7.66442e-05 -8.02474e-05 -8.1464e-05 -8.79887e-05 -8.02474e-05 -8.53641e-05 -8.79887e-05 -9.56058e-05 -8.1464e-05 -8.79887e-05 -8.52536e-05 -9.51584e-05 -8.79887e-05 -9.56058e-05 -9.51584e-05 -0.000105914 -8.53641e-05 -9.23228e-05 -9.56058e-05 -0.000104889 -9.23228e-05 -0.000101128 -0.000104889 -0.000116052 -9.56058e-05 -0.000104889 -0.000105914 -0.00011812 -0.000104889 -0.000116052 -0.00011812 -0.000132084 -8.52536e-05 -9.51584e-05 -8.88405e-05 -0.000102153 -9.51584e-05 -0.000105914 -0.000102153 -0.00011621 -8.88405e-05 -0.000102153 -9.26134e-05 -0.00010914 -0.000102153 -0.00011621 -0.00010914 -0.000126375 -0.000105914 -0.00011812 -0.00011621 -0.000131541 -0.00011812 -0.000132084 -0.000131541 -0.000148452 -0.00011621 -0.000131541 -0.000126375 -0.000144742 -0.000131541 -0.000148452 -0.000144742 -0.000164486 -7.53168e-05 -7.88655e-05 -7.37006e-05 -7.89129e-05 -7.88655e-05 -7.99877e-05 -7.89129e-05 -8.31987e-05 -7.37006e-05 -7.89129e-05 -7.86052e-05 -8.53041e-05 -7.89129e-05 -8.31987e-05 -8.53041e-05 -9.22377e-05 -7.99877e-05 -7.91059e-05 -8.31987e-05 -8.67296e-05 -7.91059e-05 -7.67972e-05 -8.67296e-05 -8.97344e-05 -8.31987e-05 -8.67296e-05 -9.22377e-05 -9.93448e-05 -8.67296e-05 -8.97344e-05 -9.93448e-05 -0.000106555 -7.86052e-05 -8.53041e-05 -8.82486e-05 -9.66505e-05 -8.53041e-05 -9.22377e-05 -9.66505e-05 -0.000106086 -8.82486e-05 -9.66505e-05 -0.000101128 -0.000111644 -9.66505e-05 -0.000106086 -0.000111644 -0.000123658 -9.22377e-05 -9.93448e-05 -0.000106086 -0.000116337 -9.93448e-05 -0.000106555 -0.000116337 -0.000127122 -0.000106086 -0.000116337 -0.000123658 -0.000136872 -0.000116337 -0.000127122 -0.000136872 -0.00015087 -7.67972e-05 -7.38308e-05 -8.97344e-05 -9.24716e-05 -7.38308e-05 -7.11365e-05 -9.24716e-05 -9.51892e-05 -8.97344e-05 -9.24716e-05 -0.000106555 -0.000113752 -9.24716e-05 -9.51892e-05 -0.000113752 -0.000120782 -7.11365e-05 -6.96647e-05 -9.51892e-05 -9.80685e-05 -6.96647e-05 -6.99843e-05 -9.80685e-05 -0.000101251 -9.51892e-05 -9.80685e-05 -0.000120782 -0.000127554 -9.80685e-05 -0.000101251 -0.000127554 -0.000134346 -0.000106555 -0.000113752 -0.000127122 -0.000138075 -0.000113752 -0.000120782 -0.000138075 -0.000148801 -0.000127122 -0.000138075 -0.00015087 -0.000165127 -0.000138075 -0.000148801 -0.000165127 -0.000179079 -0.000120782 -0.000127554 -0.000148801 -0.00015903 -0.000127554 -0.000134346 -0.00015903 -0.000168831 -0.000148801 -0.00015903 -0.000179079 -0.000192261 -0.00015903 -0.000168831 -0.000192261 -0.00020453 -0.000101128 -0.000111644 -0.000116052 -0.000129082 -0.000111644 -0.000123658 -0.000129082 -0.000143801 -0.000116052 -0.000129082 -0.000132084 -0.000147871 -0.000129082 -0.000143801 -0.000147871 -0.000165332 -0.000123658 -0.000136872 -0.000143801 -0.000159877 -0.000136872 -0.00015087 -0.000159877 -0.000176818 -0.000143801 -0.000159877 -0.000165332 -0.00018412 -0.000159877 -0.000176818 -0.00018412 -0.000203703 -0.000132084 -0.000147871 -0.000148452 -0.000167021 -0.000147871 -0.000165332 -0.000167021 -0.000187102 -0.000148452 -0.000167021 -0.000164486 -0.000185652 -0.000167021 -0.000187102 -0.000185652 -0.00020807 -0.000165332 -0.00018412 -0.000187102 -0.000208337 -0.00018412 -0.000203703 -0.000208337 -0.000230174 -0.000187102 -0.000208337 -0.00020807 -0.000231368 -0.000208337 -0.000230174 -0.000231368 -0.000254996 -0.00015087 -0.000165127 -0.000176818 -0.000193997 -0.000165127 -0.000179079 -0.000193997 -0.000210726 -0.000176818 -0.000193997 -0.000203703 -0.000223395 -0.000193997 -0.000210726 -0.000223395 -0.000242437 -0.000179079 -0.000192261 -0.000210726 -0.000226385 -0.000192261 -0.00020453 -0.000226385 -0.00024059 -0.000210726 -0.000226385 -0.000242437 -0.0002601 -0.000226385 -0.00024059 -0.0002601 -0.00027579 -0.000203703 -0.000223395 -0.000230174 -0.000251913 -0.000223395 -0.000242437 -0.000251913 -0.000272779 -0.000230174 -0.000251913 -0.000254996 -0.000278281 -0.000251913 -0.000272779 -0.000278281 -0.000300485 -0.000242437 -0.0002601 -0.000272779 -0.000291994 -0.0002601 -0.00027579 -0.000291994 -0.000308826 -0.000272779 -0.000291994 -0.000300485 -0.000320847 -0.000291994 -0.000308826 -0.000320847 -0.000338589 -2.29785e-05 -4.18227e-05 -1.79088e-05 -3.84536e-05 -4.18227e-05 -5.94838e-05 -3.84536e-05 -5.82335e-05 -1.79088e-05 -3.84536e-05 -1.37478e-05 -3.59674e-05 -3.84536e-05 -5.82335e-05 -3.59674e-05 -5.77171e-05 -5.94838e-05 -7.62523e-05 -5.82335e-05 -7.75065e-05 -7.62523e-05 -9.26134e-05 -7.75065e-05 -9.66456e-05 -5.82335e-05 -7.75065e-05 -5.77171e-05 -7.92338e-05 -7.75065e-05 -9.66456e-05 -7.92338e-05 -0.000100816 -1.37478e-05 -3.59674e-05 -1.04714e-05 -3.42521e-05 -3.59674e-05 -5.77171e-05 -3.42521e-05 -5.7767e-05 -1.04714e-05 -3.42521e-05 -7.99102e-06 -3.31467e-05 -3.42521e-05 -5.7767e-05 -3.31467e-05 -5.81744e-05 -5.77171e-05 -7.92338e-05 -5.7767e-05 -8.12367e-05 -7.92338e-05 -0.000100816 -8.12367e-05 -0.000104904 -5.7767e-05 -8.12367e-05 -5.81744e-05 -8.32791e-05 -8.12367e-05 -0.000104904 -8.32791e-05 -0.00010866 -9.26134e-05 -0.00010914 -9.66456e-05 -0.000116076 -0.00010914 -0.000126375 -0.000116076 -0.000136199 -9.66456e-05 -0.000116076 -0.000100816 -0.000122781 -0.000116076 -0.000136199 -0.000122781 -0.00014541 -0.000126375 -0.000144742 -0.000136199 -0.000157321 -0.000