# vtk DataFile Version 3.0
#This file was generated by the deal.II library on 2022/11/17 at 0:11:52
ASCII
DATASET UNSTRUCTURED_GRID

POINTS 4096 double
0 0.5 0
0.03125 0.5 0
0 0.53125 0
0.03125 0.53125 0
0.03125 0.5 0
0.0625 0.5 0
0.03125 0.53125 0
0.0625 0.53125 0
0 0.53125 0
0.03125 0.53125 0
0 0.5625 0
0.03125 0.5625 0
0.03125 0.53125 0
0.0625 0.53125 0
0.03125 0.5625 0
0.0625 0.5625 0
0.0625 0.5 0
0.09375 0.5 0
0.0625 0.53125 0
0.09375 0.53125 0
0.09375 0.5 0
0.125 0.5 0
0.09375 0.53125 0
0.125 0.53125 0
0.0625 0.53125 0
0.09375 0.53125 0
0.0625 0.5625 0
0.09375 0.5625 0
0.09375 0.53125 0
0.125 0.53125 0
0.09375 0.5625 0
0.125 0.5625 0
0 0.5625 0
0.03125 0.5625 0
0 0.59375 0
0.03125 0.59375 0
0.03125 0.5625 0
0.0625 0.5625 0
0.03125 0.59375 0
0.0625 0.59375 0
0 0.59375 0
0.03125 0.59375 0
0 0.625 0
0.03125 0.625 0
0.03125 0.59375 0
0.0625 0.59375 0
0.03125 0.625 0
0.0625 0.625 0
0.0625 0.5625 0
0.09375 0.5625 0
0.0625 0.59375 0
0.09375 0.59375 0
0.09375 0.5625 0
0.125 0.5625 0
0.09375 0.59375 0
0.125 0.59375 0
0.0625 0.59375 0
0.09375 0.59375 0
0.0625 0.625 0
0.09375 0.625 0
0.09375 0.59375 0
0.125 0.59375 0
0.09375 0.625 0
0.125 0.625 0
0.125 0.5 0
0.15625 0.5 0
0.125 0.53125 0
0.15625 0.53125 0
0.15625 0.5 0
0.1875 0.5 0
0.15625 0.53125 0
0.1875 0.53125 0
0.125 0.53125 0
0.15625 0.53125 0
0.125 0.5625 0
0.15625 0.5625 0
0.15625 0.53125 0
0.1875 0.53125 0
0.15625 0.5625 0
0.1875 0.5625 0
0.1875 0.5 0
0.21875 0.5 0
0.1875 0.53125 0
0.21875 0.53125 0
0.21875 0.5 0
0.25 0.5 0
0.21875 0.53125 0
0.25 0.53125 0
0.1875 0.53125 0
0.21875 0.53125 0
0.1875 0.5625 0
0.21875 0.5625 0
0.21875 0.53125 0
0.25 0.53125 0
0.21875 0.5625 0
0.25 0.5625 0
0.125 0.5625 0
0.15625 0.5625 0
0.125 0.59375 0
0.15625 0.59375 0
0.15625 0.5625 0
0.1875 0.5625 0
0.15625 0.59375 0
0.1875 0.59375 0
0.125 0.59375 0
0.15625 0.59375 0
0.125 0.625 0
0.15625 0.625 0
0.15625 0.59375 0
0.1875 0.59375 0
0.15625 0.625 0
0.1875 0.625 0
0.1875 0.5625 0
0.21875 0.5625 0
0.1875 0.59375 0
0.21875 0.59375 0
0.21875 0.5625 0
0.25 0.5625 0
0.21875 0.59375 0
0.25 0.59375 0
0.1875 0.59375 0
0.21875 0.59375 0
0.1875 0.625 0
0.21875 0.625 0
0.21875 0.59375 0
0.25 0.59375 0
0.21875 0.625 0
0.25 0.625 0
0 0.625 0
0.03125 0.625 0
0 0.65625 0
0.03125 0.65625 0
0.03125 0.625 0
0.0625 0.625 0
0.03125 0.65625 0
0.0625 0.65625 0
0 0.65625 0
0.03125 0.65625 0
0 0.6875 0
0.03125 0.6875 0
0.03125 0.65625 0
0.0625 0.65625 0
0.03125 0.6875 0
0.0625 0.6875 0
0.0625 0.625 0
0.09375 0.625 0
0.0625 0.65625 0
0.09375 0.65625 0
0.09375 0.625 0
0.125 0.625 0
0.09375 0.65625 0
0.125 0.65625 0
0.0625 0.65625 0
0.09375 0.65625 0
0.0625 0.6875 0
0.09375 0.6875 0
0.09375 0.65625 0
0.125 0.65625 0
0.09375 0.6875 0
0.125 0.6875 0
0 0.6875 0
0.03125 0.6875 0
0 0.71875 0
0.03125 0.71875 0
0.03125 0.6875 0
0.0625 0.6875 0
0.03125 0.71875 0
0.0625 0.71875 0
0 0.71875 0
0.03125 0.71875 0
0 0.75 0
0.03125 0.75 0
0.03125 0.71875 0
0.0625 0.71875 0
0.03125 0.75 0
0.0625 0.75 0
0.0625 0.6875 0
0.09375 0.6875 0
0.0625 0.71875 0
0.09375 0.71875 0
0.09375 0.6875 0
0.125 0.6875 0
0.09375 0.71875 0
0.125 0.71875 0
0.0625 0.71875 0
0.09375 0.71875 0
0.0625 0.75 0
0.09375 0.75 0
0.09375 0.71875 0
0.125 0.71875 0
0.09375 0.75 0
0.125 0.75 0
0.125 0.625 0
0.15625 0.625 0
0.125 0.65625 0
0.15625 0.65625 0
0.15625 0.625 0
0.1875 0.625 0
0.15625 0.65625 0
0.1875 0.65625 0
0.125 0.65625 0
0.15625 0.65625 0
0.125 0.6875 0
0.15625 0.6875 0
0.15625 0.65625 0
0.1875 0.65625 0
0.15625 0.6875 0
0.1875 0.6875 0
0.1875 0.625 0
0.21875 0.625 0
0.1875 0.65625 0
0.21875 0.65625 0
0.21875 0.625 0
0.25 0.625 0
0.21875 0.65625 0
0.25 0.65625 0
0.1875 0.65625 0
0.21875 0.65625 0
0.1875 0.6875 0
0.21875 0.6875 0
0.21875 0.65625 0
0.25 0.65625 0
0.21875 0.6875 0
0.25 0.6875 0
0.125 0.6875 0
0.15625 0.6875 0
0.125 0.71875 0
0.15625 0.71875 0
0.15625 0.6875 0
0.1875 0.6875 0
0.15625 0.71875 0
0.1875 0.71875 0
0.125 0.71875 0
0.15625 0.71875 0
0.125 0.75 0
0.15625 0.75 0
0.15625 0.71875 0
0.1875 0.71875 0
0.15625 0.75 0
0.1875 0.75 0
0.1875 0.6875 0
0.21875 0.6875 0
0.1875 0.71875 0
0.21875 0.71875 0
0.21875 0.6875 0
0.25 0.6875 0
0.21875 0.71875 0
0.25 0.71875 0
0.1875 0.71875 0
0.21875 0.71875 0
0.1875 0.75 0
0.21875 0.75 0
0.21875 0.71875 0
0.25 0.71875 0
0.21875 0.75 0
0.25 0.75 0
0.25 0.5 0
0.28125 0.5 0
0.25 0.53125 0
0.28125 0.53125 0
0.28125 0.5 0
0.3125 0.5 0
0.28125 0.53125 0
0.3125 0.53125 0
0.25 0.53125 0
0.28125 0.53125 0
0.25 0.5625 0
0.28125 0.5625 0
0.28125 0.53125 0
0.3125 0.53125 0
0.28125 0.5625 0
0.3125 0.5625 0
0.3125 0.5 0
0.34375 0.5 0
0.3125 0.53125 0
0.34375 0.53125 0
0.34375 0.5 0
0.375 0.5 0
0.34375 0.53125 0
0.375 0.53125 0
0.3125 0.53125 0
0.34375 0.53125 0
0.3125 0.5625 0
0.34375 0.5625 0
0.34375 0.53125 0
0.375 0.53125 0
0.34375 0.5625 0
0.375 0.5625 0
0.25 0.5625 0
0.28125 0.5625 0
0.25 0.59375 0
0.28125 0.59375 0
0.28125 0.5625 0
0.3125 0.5625 0
0.28125 0.59375 0
0.3125 0.59375 0
0.25 0.59375 0
0.28125 0.59375 0
0.25 0.625 0
0.28125 0.625 0
0.28125 0.59375 0
0.3125 0.59375 0
0.28125 0.625 0
0.3125 0.625 0
0.3125 0.5625 0
0.34375 0.5625 0
0.3125 0.59375 0
0.34375 0.59375 0
0.34375 0.5625 0
0.375 0.5625 0
0.34375 0.59375 0
0.375 0.59375 0
0.3125 0.59375 0
0.34375 0.59375 0
0.3125 0.625 0
0.34375 0.625 0
0.34375 0.59375 0
0.375 0.59375 0
0.34375 0.625 0
0.375 0.625 0
0.375 0.5 0
0.40625 0.5 0
0.375 0.53125 0
0.40625 0.53125 0
0.40625 0.5 0
0.4375 0.5 0
0.40625 0.53125 0
0.4375 0.53125 0
0.375 0.53125 0
0.40625 0.53125 0
0.375 0.5625 0
0.40625 0.5625 0
0.40625 0.53125 0
0.4375 0.53125 0
0.40625 0.5625 0
0.4375 0.5625 0
0.4375 0.5 0
0.46875 0.5 0
0.4375 0.53125 0
0.46875 0.53125 0
0.46875 0.5 0
0.5 0.5 0
0.46875 0.53125 0
0.5 0.53125 0
0.4375 0.53125 0
0.46875 0.53125 0
0.4375 0.5625 0
0.46875 0.5625 0
0.46875 0.53125 0
0.5 0.53125 0
0.46875 0.5625 0
0.5 0.5625 0
0.375 0.5625 0
0.40625 0.5625 0
0.375 0.59375 0
0.40625 0.59375 0
0.40625 0.5625 0
0.4375 0.5625 0
0.40625 0.59375 0
0.4375 0.59375 0
0.375 0.59375 0
0.40625 0.59375 0
0.375 0.625 0
0.40625 0.625 0
0.40625 0.59375 0
0.4375 0.59375 0
0.40625 0.625 0
0.4375 0.625 0
0.4375 0.5625 0
0.46875 0.5625 0
0.4375 0.59375 0
0.46875 0.59375 0
0.46875 0.5625 0
0.5 0.5625 0
0.46875 0.59375 0
0.5 0.59375 0
0.4375 0.59375 0
0.46875 0.59375 0
0.4375 0.625 0
0.46875 0.625 0
0.46875 0.59375 0
0.5 0.59375 0
0.46875 0.625 0
0.5 0.625 0
0.25 0.625 0
0.28125 0.625 0
0.25 0.65625 0
0.28125 0.65625 0
0.28125 0.625 0
0.3125 0.625 0
0.28125 0.65625 0
0.3125 0.65625 0
0.25 0.65625 0
0.28125 0.65625 0
0.25 0.6875 0
0.28125 0.6875 0
0.28125 0.65625 0
0.3125 0.65625 0
0.28125 0.6875 0
0.3125 0.6875 0
0.3125 0.625 0
0.34375 0.625 0
0.3125 0.65625 0
0.34375 0.65625 0
0.34375 0.625 0
0.375 0.625 0
0.34375 0.65625 0
0.375 0.65625 0
0.3125 0.65625 0
0.34375 0.65625 0
0.3125 0.6875 0
0.34375 0.6875 0
0.34375 0.65625 0
0.375 0.65625 0
0.34375 0.6875 0
0.375 0.6875 0
0.25 0.6875 0
0.28125 0.6875 0
0.25 0.71875 0
0.28125 0.71875 0
0.28125 0.6875 0
0.3125 0.6875 0
0.28125 0.71875 0
0.3125 0.71875 0
0.25 0.71875 0
0.28125 0.71875 0
0.25 0.75 0
0.28125 0.75 0
0.28125 0.71875 0
0.3125 0.71875 0
0.28125 0.75 0
0.3125 0.75 0
0.3125 0.6875 0
0.34375 0.6875 0
0.3125 0.71875 0
0.34375 0.71875 0
0.34375 0.6875 0
0.375 0.6875 0
0.34375 0.71875 0
0.375 0.71875 0
0.3125 0.71875 0
0.34375 0.71875 0
0.3125 0.75 0
0.34375 0.75 0
0.34375 0.71875 0
0.375 0.71875 0
0.34375 0.75 0
0.375 0.75 0
0.375 0.625 0
0.40625 0.625 0
0.375 0.65625 0
0.40625 0.65625 0
0.40625 0.625 0
0.4375 0.625 0
0.40625 0.65625 0
0.4375 0.65625 0
0.375 0.65625 0
0.40625 0.65625 0
0.375 0.6875 0
0.40625 0.6875 0
0.40625 0.65625 0
0.4375 0.65625 0
0.40625 0.6875 0
0.4375 0.6875 0
0.4375 0.625 0
0.46875 0.625 0
0.4375 0.65625 0
0.46875 0.65625 0
0.46875 0.625 0
0.5 0.625 0
0.46875 0.65625 0
0.5 0.65625 0
0.4375 0.65625 0
0.46875 0.65625 0
0.4375 0.6875 0
0.46875 0.6875 0
0.46875 0.65625 0
0.5 0.65625 0
0.46875 0.6875 0
0.5 0.6875 0
0.375 0.6875 0
0.40625 0.6875 0
0.375 0.71875 0
0.40625 0.71875 0
0.40625 0.6875 0
0.4375 0.6875 0
0.40625 0.71875 0
0.4375 0.71875 0
0.375 0.71875 0
0.40625 0.71875 0
0.375 0.75 0
0.40625 0.75 0
0.40625 0.71875 0
0.4375 0.71875 0
0.40625 0.75 0
0.4375 0.75 0
0.4375 0.6875 0
0.46875 0.6875 0
0.4375 0.71875 0
0.46875 0.71875 0
0.46875 0.6875 0
0.5 0.6875 0
0.46875 0.71875 0
0.5 0.71875 0
0.4375 0.71875 0
0.46875 0.71875 0
0.4375 0.75 0
0.46875 0.75 0
0.46875 0.71875 0
0.5 0.71875 0
0.46875 0.75 0
0.5 0.75 0
0 0.75 0
0.03125 0.75 0
0 0.78125 0
0.03125 0.78125 0
0.03125 0.75 0
0.0625 0.75 0
0.03125 0.78125 0
0.0625 0.78125 0
0 0.78125 0
0.03125 0.78125 0
0 0.8125 0
0.03125 0.8125 0
0.03125 0.78125 0
0.0625 0.78125 0
0.03125 0.8125 0
0.0625 0.8125 0
0.0625 0.75 0
0.09375 0.75 0
0.0625 0.78125 0
0.09375 0.78125 0
0.09375 0.75 0
0.125 0.75 0
0.09375 0.78125 0
0.125 0.78125 0
0.0625 0.78125 0
0.09375 0.78125 0
0.0625 0.8125 0
0.09375 0.8125 0
0.09375 0.78125 0
0.125 0.78125 0
0.09375 0.8125 0
0.125 0.8125 0
0 0.8125 0
0.03125 0.8125 0
0 0.84375 0
0.03125 0.84375 0
0.03125 0.8125 0
0.0625 0.8125 0
0.03125 0.84375 0
0.0625 0.84375 0
0 0.84375 0
0.03125 0.84375 0
0 0.875 0
0.03125 0.875 0
0.03125 0.84375 0
0.0625 0.84375 0
0.03125 0.875 0
0.0625 0.875 0
0.0625 0.8125 0
0.09375 0.8125 0
0.0625 0.84375 0
0.09375 0.84375 0
0.09375 0.8125 0
0.125 0.8125 0
0.09375 0.84375 0
0.125 0.84375 0
0.0625 0.84375 0
0.09375 0.84375 0
0.0625 0.875 0
0.09375 0.875 0
0.09375 0.84375 0
0.125 0.84375 0
0.09375 0.875 0
0.125 0.875 0
0.125 0.75 0
0.15625 0.75 0
0.125 0.78125 0
0.15625 0.78125 0
0.15625 0.75 0
0.1875 0.75 0
0.15625 0.78125 0
0.1875 0.78125 0
0.125 0.78125 0
0.15625 0.78125 0
0.125 0.8125 0
0.15625 0.8125 0
0.15625 0.78125 0
0.1875 0.78125 0
0.15625 0.8125 0
0.1875 0.8125 0
0.1875 0.75 0
0.21875 0.75 0
0.1875 0.78125 0
0.21875 0.78125 0
0.21875 0.75 0
0.25 0.75 0
0.21875 0.78125 0
0.25 0.78125 0
0.1875 0.78125 0
0.21875 0.78125 0
0.1875 0.8125 0
0.21875 0.8125 0
0.21875 0.78125 0
0.25 0.78125 0
0.21875 0.8125 0
0.25 0.8125 0
0.125 0.8125 0
0.15625 0.8125 0
0.125 0.84375 0
0.15625 0.84375 0
0.15625 0.8125 0
[...]
POINT_DATA 4096
SCALARS x_dis double 1
LOOKUP_TABLE default
0.000509588 0.000483472 0.000526314 0.000500721 0.000483472 0.000455827 0.000500721 0.000473345 0.000526314 0.000500721 0.000540277 0.000514999 0.000500721 0.000473345 0.000514999 0.000487729 0.000455827 0.000427127 0.000473345 0.000444648 0.000427127 0.000397774 0.000444648 0.000415001 0.000473345 0.000444648 0.000487729 0.000458863 0.000444648 0.000415001 0.000458863 0.000428715 0.000540277 0.000514999 0.000551521 0.00052637 0.000514999 0.000487729 0.00052637 0.000499059 0.000551521 0.00052637 0.000560285 0.000535108 0.00052637 0.000499059 0.000535108 0.00050764 0.000487729 0.000458863 0.000499059 0.000469882 0.000458863 0.000428715 0.000469882 0.000439067 0.000499059 0.000469882 0.00050764 0.000478048 0.000469882 0.000439067 0.000478048 0.000446465 0.000397774 0.000368153 0.000415001 0.000384754 0.000368153 0.000338678 0.000384754 0.000354271 0.000415001 0.000384754 0.000428715 0.000397565 0.000384754 0.000354271 0.000397565 0.000365697 0.000338678 0.000309799 0.000354271 0.000323946 0.000309799 0.000282012 0.000323946 0.000294207 0.000354271 0.000323946 0.000365697 0.000333403 0.000323946 0.000294207 0.000333403 0.00030098 0.000428715 0.000397565 0.000439067 0.000406813 0.000397565 0.000365697 0.000406813 0.000373305 0.000439067 0.000406813 0.000446465 0.000413002 0.000406813 0.000373305 0.000413002 0.000377753 0.000365697 0.000333403 0.000373305 0.00033872 0.000333403 0.00030098 0.00033872 0.000303206 0.000373305 0.00033872 0.000377753 0.000340793 0.00033872 0.000303206 0.000340793 0.000302152 0.000560285 0.000535108 0.000566946 0.000541637 0.000535108 0.00050764 0.000541637 0.000513933 0.000566946 0.000541637 0.00057195 0.000546451 0.000541637 0.000513933 0.000546451 0.000518467 0.00050764 0.000478048 0.000513933 0.000483869 0.000478048 0.000446465 0.000483869 0.000451481 0.000513933 0.000483869 0.000518467 0.000487914 0.000483869 0.000451481 0.000487914 0.000454747 0.00057195 0.000546451 0.000575731 0.000550027 0.000546451 0.000518467 0.000550027 0.000521754 0.000575731 0.000550027 0.000578663 0.000552772 0.000550027 0.000521754 0.000552772 0.00052423 0.000518467 0.000487914 0.000521754 0.000490735 0.000487914 0.000454747 0.000490735 0.000456862 0.000521754 0.000490735 0.00052423 0.000492797 0.000490735 0.000456862 0.000492797 0.000458324 0.000446465 0.000413002 0.000451481 0.000416804 0.000413002 0.000377753 0.000416804 0.000379863 0.000451481 0.000416804 0.000454747 0.00041894 0.000416804 0.000379863 0.00041894 0.000380472 0.000377753 0.000340793 0.000379863 0.000340661 0.000340793 0.000302152 0.000340661 0.000299164 0.000379863 0.000340661 0.000380472 0.000339316 0.000340661 0.000299164 0.000339316 0.000295428 0.000454747 0.00041894 0.000456862 0.00042007 0.00041894 0.000380472 0.00042007 0.000380317 0.000456862 0.00042007 0.000458324 0.000420726 0.00042007 0.000380317 0.000420726 0.000379962 0.000380472 0.000339316 0.000380317 0.000337579 0.000339316 0.000295428 0.000337579 0.00029184 0.000380317 0.000337579 0.000379962 0.000336031 0.000337579 0.00029184 0.000336031 0.00028897 0.000282012 0.000255857 0.000294207 0.000265507 0.000255857 0.000231921 0.000265507 0.000238301 0.000294207 0.000265507 0.00030098 0.000268696 0.000265507 0.000238301 0.000268696 0.000236729 0.000231921 0.000210873 0.000238301 0.000213023 0.000210873 0.000193553 0.000213023 0.000190025 0.000238301 0.000213023 0.000236729 0.000205055 0.000213023 0.000190025 0.000205055 0.000173202 0.00030098 0.000268696 0.000303206 0.00026684 0.000268696 0.000236729 0.00026684 0.000229545 0.000303206 0.00026684 0.000302152 0.000261777 0.00026684 0.000229545 0.000261777 0.000219471 0.000236729 0.000205055 0.000229545 0.000190958 0.000205055 0.000173202 0.000190958 0.000150206 0.000229545 0.000190958 0.000219471 0.000174807 0.000190958 0.000150206 0.000174807 0.000127074 0.000193553 0.00018124 0.000190025 0.000169365 0.00018124 0.000176247 0.000169365 0.000150102 0.000190025 0.000169365 0.000173202 0.000139727 0.000169365 0.000150102 0.000139727 0.000100958 0.000176247 0.00018637 0.000150102 0.000124929 0.00018637 0.000214346 0.000124929 6.36642e-05 0.000150102 0.000124929 0.000100958 4.89411e-05 0.000124929 6.36642e-05 4.89411e-05 -9.6645e-06 0.000173202 0.000139727 0.000150206 0.000105636 0.000139727 0.000100958 0.000105636 5.4744e-05 0.000150206 0.000105636 0.000127074 7.53698e-05 0.000105636 5.4744e-05 7.53698e-05 1.94771e-05 0.000100958 4.89411e-05 5.4744e-05 -2.26889e-06 4.89411e-05 -9.6645e-06 -2.26889e-06 -5.96423e-05 5.4744e-05 -2.26889e-06 1.94771e-05 -3.88567e-05 -2.26889e-06 -5.96423e-05 -3.88567e-05 -9.49388e-05 0.000302152 0.000261777 0.000299164 0.000255279 0.000261777 0.000219471 0.000255279 0.000208828 0.000299164 0.000255279 0.000295428 0.000248747 0.000255279 0.000208828 0.000248747 0.000199204 0.000219471 0.000174807 0.000208828 0.000159542 0.000174807 0.000127074 0.000159542 0.00010713 0.000208828 0.000159542 0.000199204 0.000146766 0.000159542 0.00010713 0.000146766 9.15543e-05 0.000295428 0.000248747 0.00029184 0.000243114 0.000248747 0.000199204 0.000243114 0.00019147 0.00029184 0.000243114 0.00028897 0.000238877 0.000243114 0.00019147 0.000238877 0.000185947 0.000199204 0.000146766 0.00019147 0.000137091 0.000146766 9.15543e-05 0.000137091 8.0385e-05 0.00019147 0.000137091 0.000185947 0.000130529 0.000137091 8.0385e-05 0.000130529 7.31946e-05 0.000127074 7.53698e-05 0.00010713 5.15614e-05 7.53698e-05 1.94771e-05 5.15614e-05 -6.42049e-06 0.00010713 5.15614e-05 9.15543e-05 3.40569e-05 5.15614e-05 -6.42049e-06 3.40569e-05 -2.45929e-05 1.94771e-05 -3.88567e-05 -6.42049e-06 -6.47196e-05 -3.88567e-05 -9.49388e-05 -6.47196e-05 -0.000119954 -6.42049e-06 -6.47196e-05 -2.45929e-05 -8.24637e-05 -6.47196e-05 -0.000119954 -8.24637e-05 -0.000137027 9.15543e-05 3.40569e-05 8.0385e-05 2.21076e-05 3.40569e-05 -2.45929e-05 2.21076e-05 -3.65172e-05 8.0385e-05 2.21076e-05 7.31946e-05 1.48125e-05 2.21076e-05 -3.65172e-05 1.48125e-05 -4.3422e-05 -2.45929e-05 -8.24637e-05 -3.65172e-05 -9.3796e-05 -8.24637e-05 -0.000137027 -9.3796e-05 -0.000147766 -3.65172e-05 -9.3796e-05 -4.3422e-05 -0.000100037 -9.3796e-05 -0.000147766 -0.000100037 -0.000153448 0.000578663 0.000552772 0.00058103 0.00055499 0.000552772 0.00052423 0.00055499 0.000526218 0.00058103 0.00055499 0.000583019 0.000556876 0.00055499 0.000526218 0.000556876 0.000527921 0.00052423 0.000492797 0.000526218 0.00049444 0.000492797 0.000458324 0.00049444 0.000459489 0.000526218 0.00049444 0.000527921 0.000495876 0.00049444 0.000459489 0.000495876 0.000460569 0.000583019 0.000556876 0.000584731 0.000558528 0.000556876 0.000527921 0.000558528 0.000529441 0.000584731 0.000558528 0.0005862 0.000559972 0.000558528 0.000529441 0.000559972 0.000530794 0.000527921 0.000495876 0.000529441 0.0004972 0.000495876 0.000460569 0.0004972 0.000461646 0.000529441 0.0004972 0.000530794 0.000498421 0.0004972 0.000461646 0.000498421 0.000462709 0.000458324 0.000420726 0.000459489 0.000421275 0.000420726 0.000379962 0.000421275 0.000379771 0.000459489 0.000421275 0.000460569 0.000421918 0.000421275 0.000379771 0.000421918 0.000379918 0.000379962 0.000336031 0.000379771 0.000335011 0.000336031 0.00028897 0.000335011 0.000287089 0.000379771 0.000335011 0.000379918 0.000334637 0.000335011 0.000287089 0.000334637 0.000286224 0.000460569 0.000421918 0.000461646 0.000422712 0.000421918 0.000379918 0.000422712 0.000380415 0.000461646 0.000422712 0.000462709 0.00042361 0.000422712 0.000380415 0.00042361 0.000381162 0.000379918 0.000334637 0.000380415 0.000334857 0.000334637 0.000286224 0.000334857 0.000286227 0.000380415 0.000334857 0.000381162 0.000335495 0.000334857 0.000286227 0.000335495 0.000286831 0.0005862 0.000559972 0.000587408 0.00056118 0.000559972 0.000530794 0.00056118 0.000531948 0.000587408 0.00056118 0.000588318 0.000562102 0.00056118 0.000531948 0.000562102 0.00053284 0.000530794 0.000498421 0.000531948 0.000499492 0.000498421 0.000462709 0.000499492 0.000463687 0.000531948 0.000499492 0.00053284 0.000500337 0.000499492 0.000463687 0.000500337 0.000464484 0.000588318 0.000562102 0.000588887 0.000562683 0.000562102 0.00053284 0.000562683 0.000533408 0.000588887 0.000562683 0.000589082 0.000562881 0.000562683 0.000533408 0.000562881 0.000533602 0.00053284 0.000500337 0.000533408 0.000500881 0.000500337 0.000464484 0.000500881 0.000465006 0.000533408 0.000500881 0.000533602 0.000501068 0.000500881 0.000465006 0.000501068 0.000465187 0.000462709 0.00042361 0.000463687 0.000424504 0.00042361 0.000381162 0.000424504 0.000381999 0.000463687 0.000424504 0.000464484 0.000425265 0.000424504 0.000381999 0.000425265 0.000382753 0.000381162 0.000335495 0.000381999 0.000336325 0.000335495 0.000286831 0.000336325 0.000287724 0.000381999 0.000336325 0.000382753 0.000337114 0.000336325 0.000287724 0.000337114 0.000288608 0.000464484 0.000425265 0.000465006 0.000425775 0.000425265 0.000382753 0.000425775 0.000383273 0.000465006 0.000425775 0.000465187 0.000425955 0.000425775 0.000383273 0.000425955 0.000383458 0.000382753 0.000337114 0.000383273 0.000337673 0.000337114 0.000288608 0.000337673 0.000289242 0.000383273 0.000337673 0.000383458 0.000337874 0.000337673 0.000289242 0.000337874 0.000289471 0.00028897 0.000238877 0.000287089 0.000236183 0.000238877 0.000185947 0.000236183 0.000182587 0.000287089 0.000236183 0.000286224 0.000234923 0.000236183 0.000182587 0.000234923 0.000181097 0.000185947 0.000130529 0.000182587 0.000126755 0.000130529 7.31946e-05 0.000126755 6.93465e-05 0.000182587 0.000126755 0.000181097 0.000125262 0.000126755 6.93465e-05 0.000125262 6.81121e-05 0.000286224 0.000234923 0.000286227 0.000234819 0.000234923 0.000181097 0.000234819 0.000181044 0.000286227 0.000234819 0.000286831 0.000235494 0.000234819 0.000181044 0.000235494 0.000181924 0.000181097 0.000125262 0.000181044 0.000125448 0.000125262 6.81121e-05 0.000125448 6.8729e-05 0.000181044 0.000125448 0.000181924 0.00012668 0.000125448 6.8729e-05 0.00012668 7.0448e-05 7.31946e-05 1.48125e-05 6.93465e-05 1.12546e-05 1.48125e-05 -4.3422e-05 1.12546e-05 -4.6399e-05 6.93465e-05 1.12546e-05 6.81121e-05 1.05225e-05 1.12546e-05 -4.6399e-05 1.05225e-05 -4.64699e-05 -4.3422e-05 -0.000100037 -4.6399e-05 -0.000102327 -0.000100037 -0.000153448 -0.000102327 -0.000155206 -4.6399e-05 -0.000102327 -4.64699e-05 -0.000101727 -0.000102327 -0.000155206 -0.000101727 -0.000154106 6.81121e-05 1.05225e-05 6.8729e-05 1.17266e-05 1.05225e-05 -4.64699e-05 1.17266e-05 -4.46012e-05 6.8729e-05 1.17266e-05 7.0448e-05 1.40295e-05 1.17266e-05 -4.46012e-05 1.40295e-05 -4.16844e-05 -4.64699e-05 -0.000101727 -4.46012e-05 -9.92325e-05 -0.000101727 -0.000154106 -9.92325e-05 -0.000151156 -4.46012e-05 -9.92325e-05 -4.16844e-05 -9.57601e-05 -9.92325e-05 -0.000151156 -9.57601e-05 -0.000147287 0.000286831 0.000235494 0.000287724 0.000236542 0.000235494 0.000181924 0.000236542 0.000183232 0.000287724 0.000236542 0.000288608 0.00023759 0.000236542 0.000183232 0.00023759 0.000184518 0.000181924 0.00012668 0.000183232 0.000128355 0.00012668 7.0448e-05 0.000128355 7.25821e-05 0.000183232 0.000128355 0.000184518 0.000129953 0.000128355 7.25821e-05 0.000129953 7.45525e-05 0.000288608 0.00023759 0.000289242 0.000238343 0.00023759 0.000184518 0.000238343 0.000185435 0.000289242 0.000238343 0.000289471 0.000238615 0.000238343 0.000185435 0.000238615 0.000185766 0.000184518 0.000129953 0.000185435 0.000131078 0.000129953 7.45525e-05 0.000131078 7.59188e-05 0.000185435 0.000131078 0.000185766 0.000131481 0.000131078 7.59188e-05 0.000131481 7.64054e-05 7.0448e-05 1.40295e-05 7.25821e-05 1.66822e-05 1.40295e-05 -4.16844e-05 1.66822e-05 -3.8508e-05 7.25821e-05 1.66822e-05 7.45525e-05 1.90579e-05 1.66822e-05 -3.8508e-05 1.90579e-05 -3.57339e-05 -4.16844e-05 -9.57601e-05 -3.8508e-05 -9.21244e-05 -9.57601e-05 -0.000147287 -9.21244e-05 -0.00014333 -3.8508e-05 -9.21244e-05 -3.57339e-05 -8.9008e-05 -9.21244e-05 -0.00014333 -8.9008e-05 -0.000139977 7.45525e-05 1.90579e-05 7.59188e-05 2.06813e-05 1.90579e-05 -3.57339e-05 2.06813e-05 -3.3862e-05 7.59188e-05 2.06813e-05 7.64054e-05 2.1256e-05 2.06813e-05 -3.3862e-05 2.1256e-05 -3.32029e-05 -3.57339e-05 -8.9008e-05 -3.3862e-05 -8.69252e-05 -8.9008e-05 -0.000139977 -8.69252e-05 -0.00013775 -3.3862e-05 -8.69252e-05 -3.32029e-05 -8.61951e-05 -8.69252e-05 -0.00013775 -8.61951e-05 -0.000136972 0.000214346 0.000205389 6.36642e-05 2.3417e-05 0.000205389 0.000163497 2.3417e-05 1.94951e-05 6.36642e-05 2.3417e-05 -9.6645e-06 -5.52236e-05 2.3417e-05 1.94951e-05 -5.52236e-05 -7.90023e-05 0.000163497 0.00011644 1.94951e-05 5.83154e-07 0.00011644 7.24817e-05 5.83154e-07 -2.51553e-05 1.94951e-05 5.83154e-07 -7.90023e-05 -9.34589e-05 5.83154e-07 -2.51553e-05 -9.34589e-05 -0.000110722 -9.6645e-06 -5.52236e-05 -5.96423e-05 -0.000106915 -5.52236e-05 -7.90023e-05 -0.000106915 -0.000139225 -5.96423e-05 -0.000106915 -9.49388e-05 -0.000143069 -0.000106915 -0.000139225 -0.000143069 -0.000180142 -7.90023e-05 -9.34589e-05 -0.000139225 -0.000160849 -9.34589e-05 -0.000110722 -0.000160849 -0.000178081 -0.000139225 -0.000160849 -0.000180142 -0.000207281 -0.000160849 -0.000178081 -0.000207281 -0.00022786 7.24817e-05 3.11493e-05 -2.51553e-05 -5.34449e-05 3.11493e-05 -7.57186e-06 -5.34449e-05 -8.19862e-05 -2.51553e-05 -5.34449e-05 -0.000110722 -0.000130396 -5.34449e-05 -8.19862e-05 -0.000130396 -0.000151071 -7.57186e-06 -4.36721e-05 -8.19862e-05 -0.000109506 -4.36721e-05 -7.69613e-05 -0.000109506 -0.00013521 -8.19862e-05 -0.000109506 -0.000151071 -0.000171456 -0.000109506 -0.00013521 -0.000171456 -0.000190631 -0.000110722 -0.000130396 -0.000178081 -0.000194593 -0.000130396 -0.000151071 -0.000194593 -0.000210811 -0.000178081 -0.000194593 -0.00022786 -0.000244737 -0.000194593 -0.000210811 -0.000244737 -0.000259424 -0.000151071 -0.000171456 -0.000210811 -0.000226329 -0.000171456 -0.000190631 -0.000226329 -0.000240602 -0.000210811 -0.000226329 -0.000259424 -0.000272335 -0.000226329 -0.000240602 -0.000272335 -0.000283474 -9.49388e-05 -0.000143069 -0.000119954 -0.000168533 -0.000143069 -0.000180142 -0.000168533 -0.000208311 -0.000119954 -0.000168533 -0.000137027 -0.000185815 -0.000168533 -0.000208311 -0.000185815 -0.000227223 -0.000180142 -0.000207281 -0.000208311 -0.000239355 -0.000207281 -0.00022786 -0.000239355 -0.000263275 -0.000208311 -0.000239355 -0.000227223 -0.000260917 -0.000239355 -0.000263275 -0.000260917 -0.000287602 -0.000137027 -0.000185815 -0.000147766 -0.000196597 -0.000185815 -0.000227223 -0.000196597 -0.000239014 -0.000147766 -0.000196597 -0.000153448 -0.00020221 -0.000196597 -0.000239014 -0.00020221 -0.000245263 -0.000227223 -0.000260917 -0.000239014 -0.00027453 -0.000260917 -0.000287602 -0.00027453 -0.000303379 -0.000239014 -0.00027453 -0.000245263 -0.00028207 -0.00027453 -0.000303379 -0.00028207 -0.000312615 -0.00022786 -0.000244737 -0.000263275 -0.000282001 -0.000244737 -0.000259424 -0.000282001 -0.000296977 -0.000263275 -0.000282001 -0.000287602 -0.000308457 -0.000282001 -0.000296977 -0.000308457 -0.000324626 -0.000259424 -0.000272335 -0.000296977 -0.00030904 -0.000272335 -0.000283474 -0.00030904 -0.000318606 -0.000296977 -0.00030904 -0.000324626 -0.000336997 -0.00030904 -0.000318606 -0.000336997 -0.000346194 -0.000287602 -0.000308457 -0.000303379 -0.000326243 -0.000308457 -0.000324626 -0.000326243 -0.00034396 -0.000303379 -0.000326243 -0.000312615 -0.000337275 -0.000326243 -0.00034396 -0.000337275 -0.000356638 -0.000324626 -0.000336997 -0.00034396 -0.000357321 -0.000336997 -0.000346194 -0.000357321 -0.000366997 -0.00034396 -0.000357321 -0.000356638 -0.000371362 -0.000357321 -0.000366997 -0.000371362 -0.000382073 -7.69613e-05 -0.000107149 -0.00013521 -0.000158549 -0.000107149 -0.000133896 -0.000158549 -0.000179125 -0.00013521 -0.000158549 -0.000190631 -0.000207978 -0.000158549 -0.000179125 -0.000207978 -0.000223105 -0.000133896 -0.000156857 -0.000179125 -0.000196647 -0.000156857 -0.000175718 -0.000196647 -0.000210906 -0.000179125 -0.000196647 -0.000223105 -0.00023578 -0.000196647 -0.000210906 -0.00023578 -0.000245875 -0.000190631 -0.000207978 -0.000240602 -0.000253209 -0.000207978 -0.000223105 -0.000253209 -0.000263887 -0.000240602 -0.000253209 -0.000283474 -0.000292752 -0.000253209 -0.000263887 -0.000292752 -0.000300129 -0.000223105 -0.00023578 -0.000263887 -0.000272512 -0.00023578 -0.000245875 -0.000272512 -0.000279049 -0.000263887 -0.000272512 -0.000300129 -0.000305633 -0.000272512 -0.000279049 -0.000305633 -0.000309338 -0.000175718 -0.000190225 -0.000210906 -0.000221761 -0.000190225 -0.000200241 -0.000221761 -0.000229142 -0.000210906 -0.000221761 -0.000245875 -0.000253318 -0.000221761 -0.000229142 -0.000253318 -0.000258045 -0.000200241 -0.000205843 -0.000229142 -0.000233038 -0.000205843 -0.000207487 -0.000233038 -0.00023368 -0.000229142 -0.000233038 -0.000258045 -0.000259997 -0.000233038 -0.00023368 -0.000259997 -0.000259143 -0.000245875 -0.000253318 -0.000279049 -0.000283492 -0.000253318 -0.000258045 -0.000283492 -0.000285808 -0.000279049 -0.000283492 -0.000309338 -0.000311315 -0.000283492 -0.000285808 -0.000311315 -0.000311577 -0.000258045 -0.000259997 -0.000285808 -0.000285897 -0.000259997 -0.000259143 -0.000285897 -0.000283561 -0.000285808 -0.000285897 -0.000311577 -0.000310008 -0.000285897 -0.000283561 -0.000310008 -0.000306306 -0.000283474 -0.000292752 -0.000318606 -0.000325908 -0.000292752 -0.000300129 -0.000325908 -0.000331135 -0.000318606 -0.000325908 -0.000346194 -0.00035267 -0.000325908 -0.000331135 -0.00035267 -0.000356789 -0.000300129 -0.000305633 -0.000331135 -0.000334476 -0.000305633 -0.000309338 -0.000334476 -0.000336118 -0.000331135 -0.000334476 -0.000356789 -0.00035887 -0.000334476 -0.000336118 -0.00035887 -0.000359193 -0.000346194 -0.00035267 -0.000366997 -0.000373541 -0.00035267 -0.000356789 -0.000373541 -0.000377415 -0.000366997 -0.000373541 -0.000382073 -0.000389332 -0.000373541 -0.000377415 -0.000389332 -0.000393631 -0.000356789 -0.00035887 -0.000377415 -0.00037902 -0.00035887 -0.000359193 -0.00037902 -0.000378692 -0.000377415 -0.00037902 -0.000393631 -0.000395394 -0.00037902 -0.000378692 -0.000395394 -0.00039498 -0.000309338 -0.000311315 -0.000336118 -0.000336212 -0.000311315 -0.000311577 -0.000336212 -0.000334816 -0.000336118 -0.000336212 -0.000359193 -0.000357973 -0.000336212 -0.000334816 -0.000357973 -0.000355326 -0.000311577 -0.000310008 -0.000334816 -0.000331839 -0.000310008 -0.000306306 -0.000331839 -0.000326957 -0.000334816 -0.000331839 -0.000355326 -0.000351214 -0.000331839 -0.000326957 -0.000351214 -0.000345362 -0.000359193 -0.000357973 -0.000378692 -0.000376694 -0.000357973 -0.000355326 -0.000376694 -0.000373194 -0.000378692 -0.000376694 -0.00039498 -0.000392673 -0.000376694 -0.000373194 -0.000392673 -0.00038868 -0.000355326 -0.000351214 -0.000373194 -0.000368218 -0.000351214 -0.000345362 -0.000368218 -0.000361598 -0.000373194 -0.000368218 -0.00038868 -0.000383097 -0.000368218 -0.000361598 -0.000383097 -0.000375881 -0.000153448 -0.00020221 -0.000155206 -0.000203836 -0.00020221 -0.000245263 -0.000203836 -0.0002473 -0.000155206 -0.000203836 -0.000154106 -0.000202575 -0.000203836 -0.0002473 -0.000202575 -0.000246319 -0.000245263 -0.00028207 -0.0002473 -0.00028506 -0.00028207 -0.000312615 -0.00028506 -0.000316971 -0.0002473 -0.00028506 -0.000246319 -0.000284818 -0.00028506 -0.000316971 -0.000284818 -0.000317865 -0.000154106 -0.000202575 -0.000151156 -0.000199459 -0.000202575 -0.000246319 -0.000199459 -0.000243408 -0.000151156 -0.000199459 -0.000147287 -0.000195441 -0.000199459 -0.000243408 -0.000195441 -0.00023955 -0.000246319 -0.000284818 -0.000243408 -0.000282506 -0.000284818 -0.000317865 -0.000282506 -0.000316518 -0.000243408 -0.000282506 -0.00023955 -0.000279144 -0.000282506 -0.000316518 -0.000279144 -0.000313972 -0.000312615 -0.000337275 -0.000316971 -0.000343222 -0.000337275 -0.000356638 -0.000343222 -0.000364221 -0.000316971 -0.000343222 -0.000317865 -0.000345533 -0.000343222 -0.000364221 -0.000345533 -0.000368099 -0.000356638 -0.000371362 -0.000364221 -0.000380489 -0.000371362 -0.