# vtk DataFile Version 3.0
#This file was generated by the deal.II library on 2022/11/17 at 0:18:44
ASCII
DATASET UNSTRUCTURED_GRID

POINTS 4528 double
0 0.5 0
0.03125 0.5 0
0 0.53125 0
0.03125 0.53125 0
0.03125 0.5 0
0.0625 0.5 0
0.03125 0.53125 0
0.0625 0.53125 0
0 0.53125 0
0.03125 0.53125 0
0 0.5625 0
0.03125 0.5625 0
0.03125 0.53125 0
0.0625 0.53125 0
0.03125 0.5625 0
0.0625 0.5625 0
0.0625 0.5 0
0.09375 0.5 0
0.0625 0.53125 0
0.09375 0.53125 0
0.09375 0.5 0
0.125 0.5 0
0.09375 0.53125 0
0.125 0.53125 0
0.0625 0.53125 0
0.09375 0.53125 0
0.0625 0.5625 0
0.09375 0.5625 0
0.09375 0.53125 0
0.125 0.53125 0
0.09375 0.5625 0
0.125 0.5625 0
0 0.5625 0
0.03125 0.5625 0
0 0.59375 0
0.03125 0.59375 0
0.03125 0.5625 0
0.0625 0.5625 0
0.03125 0.59375 0
0.0625 0.59375 0
0 0.59375 0
0.03125 0.59375 0
0 0.625 0
0.03125 0.625 0
0.03125 0.59375 0
0.0625 0.59375 0
0.03125 0.625 0
0.0625 0.625 0
0.0625 0.5625 0
0.09375 0.5625 0
0.0625 0.59375 0
0.09375 0.59375 0
0.09375 0.5625 0
0.125 0.5625 0
0.09375 0.59375 0
0.125 0.59375 0
0.0625 0.59375 0
0.09375 0.59375 0
0.0625 0.625 0
0.09375 0.625 0
0.09375 0.59375 0
0.125 0.59375 0
0.09375 0.625 0
0.125 0.625 0
0.125 0.5 0
0.15625 0.5 0
0.125 0.53125 0
0.15625 0.53125 0
0.15625 0.5 0
0.1875 0.5 0
0.15625 0.53125 0
0.1875 0.53125 0
0.125 0.53125 0
0.15625 0.53125 0
0.125 0.5625 0
0.15625 0.5625 0
0.15625 0.53125 0
0.1875 0.53125 0
0.15625 0.5625 0
0.1875 0.5625 0
0.1875 0.5 0
0.21875 0.5 0
0.1875 0.53125 0
0.21875 0.53125 0
0.21875 0.5 0
0.25 0.5 0
0.21875 0.53125 0
0.25 0.53125 0
0.1875 0.53125 0
0.21875 0.53125 0
0.1875 0.5625 0
0.21875 0.5625 0
0.21875 0.53125 0
0.25 0.53125 0
0.21875 0.5625 0
0.25 0.5625 0
0.125 0.5625 0
0.15625 0.5625 0
0.125 0.59375 0
0.15625 0.59375 0
0.15625 0.5625 0
0.1875 0.5625 0
0.15625 0.59375 0
0.1875 0.59375 0
0.125 0.59375 0
0.15625 0.59375 0
0.125 0.625 0
0.15625 0.625 0
0.15625 0.59375 0
0.1875 0.59375 0
0.15625 0.625 0
0.1875 0.625 0
0.1875 0.5625 0
0.21875 0.5625 0
0.1875 0.59375 0
0.21875 0.59375 0
0.21875 0.5625 0
0.25 0.5625 0
0.21875 0.59375 0
0.25 0.59375 0
0.1875 0.59375 0
0.21875 0.59375 0
0.1875 0.625 0
0.21875 0.625 0
0.21875 0.59375 0
0.25 0.59375 0
0.21875 0.625 0
0.25 0.625 0
0 0.625 0
0.03125 0.625 0
0 0.65625 0
0.03125 0.65625 0
0.03125 0.625 0
0.0625 0.625 0
0.03125 0.65625 0
0.0625 0.65625 0
0 0.65625 0
0.03125 0.65625 0
0 0.6875 0
0.03125 0.6875 0
0.03125 0.65625 0
0.0625 0.65625 0
0.03125 0.6875 0
0.0625 0.6875 0
0.0625 0.625 0
0.09375 0.625 0
0.0625 0.65625 0
0.09375 0.65625 0
0.09375 0.625 0
0.125 0.625 0
0.09375 0.65625 0
0.125 0.65625 0
0.0625 0.65625 0
0.09375 0.65625 0
0.0625 0.6875 0
0.09375 0.6875 0
0.09375 0.65625 0
0.125 0.65625 0
0.09375 0.6875 0
0.125 0.6875 0
0 0.6875 0
0.03125 0.6875 0
0 0.71875 0
0.03125 0.71875 0
0.03125 0.6875 0
0.0625 0.6875 0
0.03125 0.71875 0
0.0625 0.71875 0
0 0.71875 0
0.03125 0.71875 0
0 0.75 0
0.03125 0.75 0
0.03125 0.71875 0
0.0625 0.71875 0
0.03125 0.75 0
0.0625 0.75 0
0.0625 0.6875 0
0.09375 0.6875 0
0.0625 0.71875 0
0.09375 0.71875 0
0.09375 0.6875 0
0.125 0.6875 0
0.09375 0.71875 0
0.125 0.71875 0
0.0625 0.71875 0
0.09375 0.71875 0
0.0625 0.75 0
0.09375 0.75 0
0.09375 0.71875 0
0.125 0.71875 0
0.09375 0.75 0
0.125 0.75 0
0.125 0.625 0
0.15625 0.625 0
0.125 0.65625 0
0.15625 0.65625 0
0.15625 0.625 0
0.1875 0.625 0
0.15625 0.65625 0
0.1875 0.65625 0
0.125 0.65625 0
0.15625 0.65625 0
0.125 0.6875 0
0.15625 0.6875 0
0.15625 0.65625 0
0.1875 0.65625 0
0.15625 0.6875 0
0.1875 0.6875 0
0.1875 0.625 0
0.21875 0.625 0
0.1875 0.65625 0
0.21875 0.65625 0
0.21875 0.625 0
0.25 0.625 0
0.21875 0.65625 0
0.25 0.65625 0
0.1875 0.65625 0
0.21875 0.65625 0
0.1875 0.6875 0
0.21875 0.6875 0
0.21875 0.65625 0
0.25 0.65625 0
0.21875 0.6875 0
0.25 0.6875 0
0.125 0.6875 0
0.15625 0.6875 0
0.125 0.71875 0
0.15625 0.71875 0
0.15625 0.6875 0
0.1875 0.6875 0
0.15625 0.71875 0
0.1875 0.71875 0
0.125 0.71875 0
0.15625 0.71875 0
0.125 0.75 0
0.15625 0.75 0
0.15625 0.71875 0
0.1875 0.71875 0
0.15625 0.75 0
0.1875 0.75 0
0.1875 0.6875 0
0.21875 0.6875 0
0.1875 0.71875 0
0.21875 0.71875 0
0.21875 0.6875 0
0.25 0.6875 0
0.21875 0.71875 0
0.25 0.71875 0
0.1875 0.71875 0
0.21875 0.71875 0
0.1875 0.75 0
0.21875 0.75 0
0.21875 0.71875 0
0.25 0.71875 0
0.21875 0.75 0
0.25 0.75 0
0.25 0.5 0
0.28125 0.5 0
0.25 0.53125 0
0.28125 0.53125 0
0.28125 0.5 0
0.3125 0.5 0
0.28125 0.53125 0
0.3125 0.53125 0
0.25 0.53125 0
0.28125 0.53125 0
0.25 0.5625 0
0.28125 0.5625 0
0.28125 0.53125 0
0.3125 0.53125 0
0.28125 0.5625 0
0.3125 0.5625 0
0.3125 0.5 0
0.34375 0.5 0
0.3125 0.53125 0
0.34375 0.53125 0
0.34375 0.5 0
0.375 0.5 0
0.34375 0.53125 0
0.375 0.53125 0
0.3125 0.53125 0
0.34375 0.53125 0
0.3125 0.5625 0
0.34375 0.5625 0
0.34375 0.53125 0
0.375 0.53125 0
0.34375 0.5625 0
0.375 0.5625 0
0.25 0.5625 0
0.28125 0.5625 0
0.25 0.59375 0
0.28125 0.59375 0
0.28125 0.5625 0
0.3125 0.5625 0
0.28125 0.59375 0
0.3125 0.59375 0
0.25 0.59375 0
0.28125 0.59375 0
0.25 0.625 0
0.28125 0.625 0
0.28125 0.59375 0
0.3125 0.59375 0
0.28125 0.625 0
0.3125 0.625 0
0.3125 0.5625 0
0.34375 0.5625 0
0.3125 0.59375 0
0.34375 0.59375 0
0.34375 0.5625 0
0.375 0.5625 0
0.34375 0.59375 0
0.375 0.59375 0
0.3125 0.59375 0
0.34375 0.59375 0
0.3125 0.625 0
0.34375 0.625 0
0.34375 0.59375 0
0.375 0.59375 0
0.34375 0.625 0
0.375 0.625 0
0.375 0.5625 0
0.40625 0.5625 0
0.375 0.59375 0
0.40625 0.59375 0
0.40625 0.5625 0
0.4375 0.5625 0
0.40625 0.59375 0
0.4375 0.59375 0
0.375 0.59375 0
0.40625 0.59375 0
0.375 0.625 0
0.40625 0.625 0
0.40625 0.59375 0
0.4375 0.59375 0
0.40625 0.625 0
0.4375 0.625 0
0.25 0.625 0
0.28125 0.625 0
0.25 0.65625 0
0.28125 0.65625 0
0.28125 0.625 0
0.3125 0.625 0
0.28125 0.65625 0
0.3125 0.65625 0
0.25 0.65625 0
0.28125 0.65625 0
0.25 0.6875 0
0.28125 0.6875 0
0.28125 0.65625 0
0.3125 0.65625 0
0.28125 0.6875 0
0.3125 0.6875 0
0.3125 0.625 0
0.34375 0.625 0
0.3125 0.65625 0
0.34375 0.65625 0
0.34375 0.625 0
0.375 0.625 0
0.34375 0.65625 0
0.375 0.65625 0
0.3125 0.65625 0
0.34375 0.65625 0
0.3125 0.6875 0
0.34375 0.6875 0
0.34375 0.65625 0
0.375 0.65625 0
0.34375 0.6875 0
0.375 0.6875 0
0.25 0.6875 0
0.28125 0.6875 0
0.25 0.71875 0
0.28125 0.71875 0
0.28125 0.6875 0
0.3125 0.6875 0
0.28125 0.71875 0
0.3125 0.71875 0
0.25 0.71875 0
0.28125 0.71875 0
0.25 0.75 0
0.28125 0.75 0
0.28125 0.71875 0
0.3125 0.71875 0
0.28125 0.75 0
0.3125 0.75 0
0.3125 0.6875 0
0.34375 0.6875 0
0.3125 0.71875 0
0.34375 0.71875 0
0.34375 0.6875 0
0.375 0.6875 0
0.34375 0.71875 0
0.375 0.71875 0
0.3125 0.71875 0
0.34375 0.71875 0
0.3125 0.75 0
0.34375 0.75 0
0.34375 0.71875 0
0.375 0.71875 0
0.34375 0.75 0
0.375 0.75 0
0.375 0.625 0
0.40625 0.625 0
0.375 0.65625 0
0.40625 0.65625 0
0.40625 0.625 0
0.4375 0.625 0
0.40625 0.65625 0
0.4375 0.65625 0
0.375 0.65625 0
0.40625 0.65625 0
0.375 0.6875 0
0.40625 0.6875 0
0.40625 0.65625 0
0.4375 0.65625 0
0.40625 0.6875 0
0.4375 0.6875 0
0.4375 0.625 0
0.46875 0.625 0
0.4375 0.65625 0
0.46875 0.65625 0
0.46875 0.625 0
0.5 0.625 0
0.46875 0.65625 0
0.5 0.65625 0
0.4375 0.65625 0
0.46875 0.65625 0
0.4375 0.6875 0
0.46875 0.6875 0
0.46875 0.65625 0
0.5 0.65625 0
0.46875 0.6875 0
0.5 0.6875 0
0.375 0.6875 0
0.40625 0.6875 0
0.375 0.71875 0
0.40625 0.71875 0
0.40625 0.6875 0
0.4375 0.6875 0
0.40625 0.71875 0
0.4375 0.71875 0
0.375 0.71875 0
0.40625 0.71875 0
0.375 0.75 0
0.40625 0.75 0
0.40625 0.71875 0
0.4375 0.71875 0
0.40625 0.75 0
0.4375 0.75 0
0.4375 0.6875 0
0.46875 0.6875 0
0.4375 0.71875 0
0.46875 0.71875 0
0.46875 0.6875 0
0.5 0.6875 0
0.46875 0.71875 0
0.5 0.71875 0
0.4375 0.71875 0
0.46875 0.71875 0
0.4375 0.75 0
0.46875 0.75 0
0.46875 0.71875 0
0.5 0.71875 0
0.46875 0.75 0
0.5 0.75 0
0 0.75 0
0.03125 0.75 0
0 0.78125 0
0.03125 0.78125 0
0.03125 0.75 0
0.0625 0.75 0
0.03125 0.78125 0
0.0625 0.78125 0
0 0.78125 0
0.03125 0.78125 0
0 0.8125 0
0.03125 0.8125 0
0.03125 0.78125 0
0.0625 0.78125 0
0.03125 0.8125 0
0.0625 0.8125 0
0.0625 0.75 0
0.09375 0.75 0
0.0625 0.78125 0
0.09375 0.78125 0
0.09375 0.75 0
0.125 0.75 0
0.09375 0.78125 0
0.125 0.78125 0
0.0625 0.78125 0
0.09375 0.78125 0
0.0625 0.8125 0
0.09375 0.8125 0
0.09375 0.78125 0
0.125 0.78125 0
0.09375 0.8125 0
0.125 0.8125 0
0 0.8125 0
0.03125 0.8125 0
0 0.84375 0
0.03125 0.84375 0
0.03125 0.8125 0
0.0625 0.8125 0
0.03125 0.84375 0
0.0625 0.84375 0
0 0.84375 0
0.03125 0.84375 0
0 0.875 0
0.03125 0.875 0
0.03125 0.84375 0
0.0625 0.84375 0
0.03125 0.875 0
0.0625 0.875 0
0.0625 0.8125 0
0.09375 0.8125 0
0.0625 0.84375 0
0.09375 0.84375 0
0.09375 0.8125 0
0.125 0.8125 0
0.09375 0.84375 0
0.125 0.84375 0
0.0625 0.84375 0
0.09375 0.84375 0
0.0625 0.875 0
0.09375 0.875 0
0.09375 0.84375 0
0.125 0.84375 0
0.09375 0.875 0
0.125 0.875 0
0.125 0.75 0
0.15625 0.75 0
0.125 0.78125 0
0.15625 0.78125 0
0.15625 0.75 0
0.1875 0.75 0
0.15625 0.78125 0
0.1875 0.78125 0
0.125 0.78125 0
0.15625 0.78125 0
0.125 0.8125 0
0.15625 0.8125 0
0.15625 0.78125 0
0.1875 0.78125 0
0.15625 0.8125 0
0.1875 0.8125 0
0.1875 0.75 0
0.21875 0.75 0
0.1875 0.78125 0
0.21875 0.78125 0
0.21875 0.75 0
0.25 0.75 0
0.21875 0.78125 0
0.25 0.78125 0
0.1875 0.78125 0
0.21875 0.78125 0
0.1875 0.8125 0
0.21875 0.8125 0
0.21875 0.78125 0
0.25 0.78125 0
0.21875 0.8125 0
0.25 0.8125 0
0.125 0.8125 0
0.15625 0.8125 0
0.125 0.84375 0
0.15625 0.84375 0
0.15625 0.8125 0
0.1875 0.8125 0
0.15625 0.84375 0
0.1875 0.84375 0
0.125 0.84375 0
0.15625 0.84375 0
0.125 0.875 0
0.15625 0.875 0
0.15625 0.84375 0
0.1875 0.84375 0
0.15625 0.875 0
0.1875 0.875 0
0.1875 0.8125 0
0.21875 0.8125 0
0.1875 0.84375 0
0.21875 0.84375 0
0.21875 0.8125 0
0.25 0.8125 0
0.21875 0.84375 0
0.25 0.84375 0
0.1875 0.84375 0
0.21875 0.84375 0
0.1875 0.875 0
0.21875 0.875 0
0.21875 0.84375 0
0.25 0.84375 0
0.21875 0.875 0
0.25 0.875 0
0 0.875 0
0.03125 0.875 0
0 0.90625 0
0.03125 0.90625 0
0.03125 0.875 0
0.0625 0.875 0
0.03125 0.90625 0
0.0625 0.90625 0
0 0.90625 0
0.03125 0.90625 0
0 0.9375 0
0.03125 0.9375 0
0.03125 0.90625 0
0.0625 0.90625 0
0.03125 0.9375 0
0.0625 0.9375 0
0.0625 0.875 0
0.09375 0.875 0
0.0625 0.90625 0
0.09375 0.90625 0
[...]
POINT_DATA 4528
SCALARS x_dis double 1
LOOKUP_TABLE default
0.000860857 0.00081832 0.000834117 0.000791002 0.00081832 0.000773887 0.000791002 0.000746252 0.000834117 0.000791002 0.000798233 0.000754043 0.000791002 0.000746252 0.000754043 0.000708568 0.000773887 0.0007291 0.000746252 0.000701398 0.0007291 0.000685117 0.000701398 0.000657592 0.000746252 0.000701398 0.000708568 0.000663224 0.000701398 0.000657592 0.000663224 0.000619072 0.000798233 0.000754043 0.000753988 0.000708272 0.000754043 0.000708568 0.000708272 0.000661711 0.000753988 0.000708272 0.000702593 0.000654978 0.000708272 0.000661711 0.000654978 0.000607044 0.000708568 0.000663224 0.000661711 0.00061552 0.000663224 0.000619072 0.00061552 0.000570603 0.000661711 0.00061552 0.000607044 0.000559749 0.00061552 0.000570603 0.000559749 0.000513799 0.000685117 0.000642863 0.000657592 0.000615741 0.000642863 0.000603113 0.000615741 0.000576592 0.000657592 0.000615741 0.000619072 0.000576925 0.000615741 0.000576592 0.000576925 0.000537414 0.000603113 0.000566563 0.000576592 0.000540785 0.000566563 0.000533879 0.000540785 0.000508892 0.000576592 0.000540785 0.000537414 0.000501022 0.000540785 0.000508892 0.000501022 0.000468086 0.000619072 0.000576925 0.000570603 0.000527627 0.000576925 0.000537414 0.000527627 0.000487063 0.000570603 0.000527627 0.000513799 0.000469691 0.000527627 0.000487063 0.000469691 0.000427729 0.000537414 0.000501022 0.000487063 0.000449192 0.000501022 0.000468086 0.000449192 0.000414091 0.000487063 0.000449192 0.000427729 0.000388016 0.000449192 0.000414091 0.000388016 0.00035043 0.000702593 0.000654978 0.00064561 0.000595821 0.000654978 0.000607044 0.000595821 0.000546316 0.00064561 0.000595821 0.000584851 0.000532719 0.000595821 0.000546316 0.000532719 0.000481537 0.000607044 0.000559749 0.000546316 0.000497769 0.000559749 0.000513799 0.000497769 0.000450675 0.000546316 0.000497769 0.000481537 0.000431695 0.000497769 0.000450675 0.000431695 0.000383483 0.000584851 0.000532719 0.000522277 0.000467738 0.000532719 0.000481537 0.000467738 0.000414859 0.000522277 0.000467738 0.000459895 0.000402985 0.000467738 0.000414859 0.000402985 0.000348458 0.000481537 0.000431695 0.000414859 0.000363763 0.000431695 0.000383483 0.000363763 0.000314552 0.000414859 0.000363763 0.000348458 0.000296207 0.000363763 0.000314552 0.000296207 0.000246172 0.000513799 0.000469691 0.000450675 0.000405361 0.000469691 0.000427729 0.000405361 0.000361986 0.000450675 0.000405361 0.000383483 0.000337072 0.000405361 0.000361986 0.000337072 0.000292505 0.000427729 0.000388016 0.000361986 0.000320522 0.000388016 0.00035043 0.000320522 0.000280741 0.000361986 0.000320522 0.000292505 0.00024968 0.000320522 0.000280741 0.00024968 0.00020834 0.000383483 0.000337072 0.000314552 0.000267268 0.000337072 0.000292505 0.000267268 0.000221865 0.000314552 0.000267268 0.000246172 0.000198285 0.000267268 0.000221865 0.000198285 0.000152435 0.000292505 0.00024968 0.000221865 0.000178202 0.00024968 0.00020834 0.000178202 0.000136042 0.000221865 0.000178202 0.000152435 0.000108461 0.000178202 0.000136042 0.000108461 6.61589e-05 0.000533879 0.000505761 0.000508892 0.000481453 0.000505761 0.000483011 0.000481453 0.000458987 0.000508892 0.000481453 0.000468086 0.000438775 0.000481453 0.000458987 0.000438775 0.000413024 0.000483011 0.000466648 0.000458987 0.000442002 0.000466648 0.000458094 0.000442002 0.000430938 0.000458987 0.000442002 0.000413024 0.000390365 0.000442002 0.000430938 0.000390365 0.000369557 0.000468086 0.000438775 0.000414091 0.000381574 0.000438775 0.000413024 0.000381574 0.000351091 0.000414091 0.000381574 0.00035043 0.000314571 0.000381574 0.000351091 0.000314571 0.000279698 0.000413024 0.000390365 0.000351091 0.000321551 0.000390365 0.000369557 0.000321551 0.000291013 0.000351091 0.000321551 0.000279698 0.000244653 0.000321551 0.000291013 0.000244653 0.000207908 0.000369557 0.000346896 0.000291013 0.000256704 0.000346896 0.000317404 0.000256704 0.00021549 0.000291013 0.000256704 0.000207908 0.000167882 0.000256704 0.00021549 0.000167882 0.000124503 0.00035043 0.000314571 0.000280741 0.000242192 0.000314571 0.000279698 0.000242192 0.000204187 0.000280741 0.000242192 0.00020834 0.000168085 0.000242192 0.000204187 0.000168085 0.000128407 0.000279698 0.000244653 0.000204187 0.000165859 0.000244653 0.000207908 0.000165859 0.000126354 0.000204187 0.000165859 0.000128407 8.87962e-05 0.000165859 0.000126354 8.87962e-05 4.89742e-05 0.00020834 0.000168085 0.000136042 9.50759e-05 0.000168085 0.000128407 9.50759e-05 5.49852e-05 0.000136042 9.50759e-05 6.61589e-05 2.53076e-05 9.50759e-05 5.49852e-05 2.53076e-05 -1.42693e-05 0.000128407 8.87962e-05 5.49852e-05 1.55484e-05 8.87962e-05 4.89742e-05 1.55484e-05 -2.31886e-05 5.49852e-05 1.55484e-05 -1.42693e-05 -5.26179e-05 1.55484e-05 -2.31886e-05 -5.26179e-05 -8.95401e-05 0.000207908 0.000167882 0.000126354 8.53895e-05 0.000167882 0.000124503 8.53895e-05 4.38984e-05 0.000126354 8.53895e-05 4.89742e-05 9.22544e-06 8.53895e-05 4.38984e-05 9.22544e-06 -2.92147e-05 0.000124503 8.08445e-05 4.38984e-05 4.75588e-06 8.08445e-05 4.41583e-05 4.75588e-06 -2.66905e-05 4.38984e-05 4.75588e-06 -2.92147e-05 -6.38561e-05 4.75588e-06 -2.66905e-05 -6.38561e-05 -9.131e-05 4.89742e-05 9.22544e-06 -2.31886e-05 -6.07027e-05 9.22544e-06 -2.92147e-05 -6.07027e-05 -9.58064e-05 -2.31886e-05 -6.07027e-05 -8.95401e-05 -0.00012448 -6.07027e-05 -9.58064e-05 -0.00012448 -0.000156457 -2.92147e-05 -6.38561e-05 -9.58064e-05 -0.000126635 -6.38561e-05 -9.131e-05 -0.000126635 -0.000150957 -9.58064e-05 -0.000126635 -0.000156457 -0.000184129 -0.000126635 -0.000150957 -0.000184129 -0.000206022 0.000459895 0.000402985 0.000399669 0.000340508 0.000402985 0.000348458 0.000340508 0.000284441 0.000399669 0.000340508 0.000343449 0.000282226 0.000340508 0.000284441 0.000282226 0.000224769 0.000348458 0.000296207 0.000284441 0.00023117 0.000296207 0.000246172 0.00023117 0.0001805 0.000284441 0.00023117 0.000224769 0.000170628 0.00023117 0.0001805 0.000170628 0.000119499 0.000343449 0.000282226 0.00029291 0.000229869 0.000282226 0.000224769 0.000229869 0.000171202 0.00029291 0.000229869 0.000249513 0.000184939 0.000229869 0.000171202 0.000184939 0.000125263 0.000224769 0.000170628 0.000171202 0.000116343 0.000170628 0.000119499 0.000116343 6.49045e-05 0.000171202 0.000116343 0.000125263 6.98327e-05 0.000116343 6.49045e-05 6.98327e-05 1.81986e-05 0.000246172 0.000198285 0.0001805 0.000132272 0.000198285 0.000152435 0.000132272 8.6325e-05 0.0001805 0.000132272 0.000119499 7.11503e-05 0.000132272 8.6325e-05 7.11503e-05 2.53763e-05 0.000152435 0.000108461 8.6325e-05 4.2485e-05 0.000108461 6.61589e-05 4.2485e-05 5.71206e-07 8.6325e-05 4.2485e-05 2.53763e-05 -1.80123e-05 4.2485e-05 5.71206e-07 -1.80123e-05 -5.91865e-05 0.000119499 7.11503e-05 6.49045e-05 1.65928e-05 7.11503e-05 2.53763e-05 1.65928e-05 -2.88358e-05 6.49045e-05 1.65928e-05 1.81986e-05 -2.99824e-05 1.65928e-05 -2.88358e-05 -2.99824e-05 -7.49893e-05 2.53763e-05 -1.80123e-05 -2.88358e-05 -7.15911e-05 -1.80123e-05 -5.91865e-05 -7.15911e-05 -0.000111849 -2.88358e-05 -7.15911e-05 -7.49893e-05 -0.000117055 -7.15911e-05 -0.000111849 -0.000117055 -0.00015637 0.000249513 0.000184939 0.000214477 0.000148686 0.000184939 0.000125263 0.000148686 8.82132e-05 0.000214477 0.000148686 0.000188761 0.000122088 0.000148686 8.82132e-05 0.000122088 6.10415e-05 0.000125263 6.98327e-05 8.82132e-05 3.23509e-05 6.98327e-05 1.81986e-05 3.23509e-05 -1.93981e-05 8.82132e-05 3.23509e-05 6.10415e-05 4.87689e-06 3.23509e-05 -1.93981e-05 4.87689e-06 -4.69338e-05 0.000188761 0.000122088 0.000173055 0.000105847 0.000122088 6.10415e-05 0.000105847 4.44551e-05 0.000173055 0.000105847 0.000167773 0.000100387 0.000105847 4.44551e-05 0.000100387 3.8879e-05 6.10415e-05 4.87689e-06 4.44551e-05 -1.18881e-05 4.87689e-06 -4.69338e-05 -1.18881e-05 -6.37277e-05 4.44551e-05 -1.18881e-05 3.8879e-05 -1.75232e-05 -1.18881e-05 -6.37277e-05 -1.75232e-05 -6.93711e-05 1.81986e-05 -2.99824e-05 -1.93981e-05 -6.74142e-05 -2.99824e-05 -7.49893e-05 -6.74142e-05 -0.000112006 -1.93981e-05 -6.74142e-05 -4.69338e-05 -9.47981e-05 -6.74142e-05 -0.000112006 -9.47981e-05 -0.000139048 -7.49893e-05 -0.000117055 -0.000112006 -0.00015343 -0.000117055 -0.00015637 -0.00015343 -0.000191897 -0.000112006 -0.00015343 -0.000139048 -0.000179959 -0.00015343 -0.000191897 -0.000179959 -0.00021776 -4.69338e-05 -9.47981e-05 -6.37277e-05 -0.000111487 -9.47981e-05 -0.000139048 -0.000111487 -0.000155514 -6.37277e-05 -0.000111487 -6.93711e-05 -0.000117094 -0.000111487 -0.000155514 -0.000117094 -0.000161042 -0.000139048 -0.000179959 -0.000155514 -0.000196095 -0.000179959 -0.00021776 -0.000196095 -0.000233474 -0.000155514 -0.000196095 -0.000161042 -0.000201511 -0.000196095 -0.000233474 -0.000201511 -0.000238744 6.61589e-05 2.53076e-05 5.71206e-07 -3.95765e-05 2.53076e-05 -1.42693e-05 -3.95765e-05 -7.8051e-05 5.71206e-07 -3.95765e-05 -5.91865e-05 -9.82781e-05 -3.95765e-05 -7.8051e-05 -9.82781e-05 -0.000135347 -1.42693e-05 -5.26179e-05 -7.8051e-05 -0.000114816 -5.26179e-05 -8.95401e-05 -0.000114816 -0.000149639 -7.8051e-05 -0.000114816 -0.000135347 -0.00017034 -0.000114816 -0.000149639 -0.00017034 -0.000203055 -5.91865e-05 -9.82781e-05 -0.000111849 -0.000149738 -9.82781e-05 -0.000135347 -0.000149738 -0.000185321 -0.000111849 -0.000149738 -0.00015637 -0.000193078 -0.000149738 -0.000185321 -0.000193078 -0.000227261 -0.000135347 -0.00017034 -0.000185321 -0.000218566 -0.00017034 -0.000203055 -0.000218566 -0.000249333 -0.000185321 -0.000218566 -0.000227261 -0.000258928 -0.000218566 -0.000249333 -0.000258928 -0.000288007 -8.95401e-05 -0.00012448 -0.000149639 -0.000182034 -0.00012448 -0.000156457 -0.000182034 -0.000211254 -0.000149639 -0.000182034 -0.000203055 -0.000233117 -0.000182034 -0.000211254 -0.000233117 -0.00025999 -0.000156457 -0.000184129 -0.000211254 -0.000236359 -0.000184129 -0.000206022 -0.000236359 -0.00025638 -0.000211254 -0.000236359 -0.00025999 -0.000283038 -0.000236359 -0.00025638 -0.000283038 -0.000301636 -0.000203055 -0.000233117 -0.000249333 -0.000277362 -0.000233117 -0.00025999 -0.000277362 -0.000302295 -0.000249333 -0.000277362 -0.000288007 -0.000314346 -0.000277362 -0.000302295 -0.000314346 -0.000337727 -0.00025999 -0.000283038 -0.000302295 -0.000323722 -0.000283038 -0.000301636 -0.000323722 -0.000341257 -0.000302295 -0.000323722 -0.000337727 -0.000357907 -0.000323722 -0.000341257 -0.000357907 -0.000374666 -0.00015637 -0.000193078 -0.000191897 -0.000227569 -0.000193078 -0.000227261 -0.000227569 -0.000260559 -0.000191897 -0.000227569 -0.00021776 -0.000252634 -0.000227569 -0.000260559 -0.000252634 -0.000284718 -0.000227261 -0.000258928 -0.000260559 -0.000290916 -0.000258928 -0.000288007 -0.000290916 -0.000318634 -0.000260559 -0.000290916 -0.000284718 -0.0003141 -0.000290916 -0.000318634 -0.0003141 -0.000340822 -0.00021776 -0.000252634 -0.000233474 -0.000267846 -0.000252634 -0.000284718 -0.000267846 -0.000299367 -0.000233474 -0.000267846 -0.000238744 -0.000272946 -0.000267846 -0.000299367 -0.000272946 -0.000304276 -0.000284718 -0.0003141 -0.000299367 -0.000328149 -0.0003141 -0.000340822 -0.000328149 -0.000354264 -0.000299367 -0.000328149 -0.000304276 -0.000332856 -0.000328149 -0.000354264 -0.000332856 -0.000358767 -0.000288007 -0.000314346 -0.000318634 -0.000343645 -0.000314346 -0.000337727 -0.000343645 -0.000365842 -0.000318634 -0.000343645 -0.000340822 -0.00036488 -0.000343645 -0.000365842 -0.00036488 -0.000386241 -0.000337727 -0.000357907 -0.000365842 -0.000385098 -0.000357907 -0.000374666 -0.000385098 -0.00040131 -0.000365842 -0.000385098 -0.000386241 -0.000404861 -0.000385098 -0.00040131 -0.000404861 -0.000420711 -0.000340822 -0.00036488 -0.000354264 -0.000377748 -0.00036488 -0.000386241 -0.000377748 -0.000398613 -0.000354264 -0.000377748 -0.000358767 -0.00038206 -0.000377748 -0.000398613 -0.00038206 -0.00040276 -0.000386241 -0.000404861 -0.000398613 -0.000416861 -0.000404861 -0.000420711 -0.000416861 -0.000432505 -0.000398613 -0.000416861 -0.00040276 -0.000420884 -0.000416861 -0.000432505 -0.000420884 -0.000436462 0.000599391 0.000558995 0.000378013 0.000391062 0.000558995 0.000523847 0.000391062 0.000393856 0.000378013 0.000391062 0.000217194 0.000244703 0.000391062 0.000393856 0.000244703 0.000267118 0.000218815 0.000199776 0.000123424 0.000102827 0.000199776 0.000217194 0.000102827 0.000108182 0.000123424 0.000102827 4.41583e-05 2.41906e-05 0.000102827 0.000108182 2.41906e-05 2.33497e-05 0.000217194 0.000244703 0.000108182 0.000129715 0.000244703 0.000267118 0.000129715 0.000155689 0.000108182 0.000129715 2.33497e-05 3.77848e-05 0.000129715 0.000155689 3.77848e-05 6.0499e-05 0.000523847 0.000496455 0.000393856 0.00039321 0.000496455 0.000476805 0.00039321 0.000392519 0.000393856 0.00039321 0.000267118 0.000284238 0.00039321 0.000392519 0.000284238 0.000298001 0.000476805 0.000464475 0.000392519 0.000393392 0.000464475 0.00045878 0.000393392 0.000396423 0.000392519 0.000393392 0.000298001 0.00030993 0.000393392 0.000396423 0.00030993 0.00032096 0.000267118 0.000284238 0.000155689 0.000180362 0.000284238 0.000298001 0.000180362 0.000202276 0.000155689 0.000180362 6.0499e-05 8.57774e-05 0.000180362 0.000202276 8.57774e-05 0.000110419 0.000298001 0.00030993 0.000202276 0.000221504 0.00030993 0.00032096 0.000221504 0.000238448 0.000202276 0.000221504 0.000110419 0.000133091 0.000221504 0.000238448 0.000133091 0.000153385 4.41583e-05 2.41906e-05 -2.66905e-05 -4.53114e-05 2.41906e-05 2.33497e-05 -4.53114e-05 -4.90972e-05 -2.66905e-05 -4.53114e-05 -9.131e-05 -0.000108467 -4.53114e-05 -4.90972e-05 -0.000108467 -0.000114007 2.33497e-05 3.77848e-05 -4.90972e-05 -4.00008e-05 3.77848e-05 6.0499e-05 -4.00008e-05 -2.19831e-05 -4.90972e-05 -4.00008e-05 -0.000114007 -0.000108806 -4.00008e-05 -2.19831e-05 -0.000108806 -9.527e-05 -9.131e-05 -0.000108467 -0.000150957 -0.00016686 -0.000108467 -0.000114007 -0.00016686 -0.000173461 -0.000150957 -0.00016686 -0.000206022 -0.000220927 -0.00016686 -0.000173461 -0.000220927 -0.000228285 -0.000114007 -0.000108806 -0.000173461 -0.000171221 -0.000108806 -9.527e-05 -0.000171221 -0.000161622 -0.000173461 -0.000171221 -0.000228285 -0.000228378 -0.000171221 -0.000161622 -0.000228378 -0.000222183 6.0499e-05 8.57774e-05 -2.19831e-05 5.92852e-07 8.57774e-05 0.000110419 5.92852e-07 2.44233e-05 -2.19831e-05 5.92852e-07 -9.527e-05 -7.65291e-05 5.92852e-07 2.44233e-05 -7.65291e-05 -5.53872e-05 0.000110419 0.000133091 2.44233e-05 4.74978e-05 0.000133091 0.000153385 4.74978e-05 6.87807e-05 2.44233e-05 4.74978e-05 -5.53872e-05 -3.39216e-05 4.74978e-05 6.87807e-05 -3.39216e-05 -1.34681e-05 -9.527e-05 -7.65291e-05 -0.000161622 -0.000146888 -7.65291e-05 -5.53872e-05 -0.000146888 -0.000129235 -0.000161622 -0.000146888 -0.000222183 -0.000211259 -0.000146888 -0.000129235 -0.000211259 -0.000197307 -5.53872e-05 -3.39216e-05 -0.000129235 -0.00011053 -3.39216e-05 -1.34681e-05 -0.00011053 -9.21281e-05 -0.000129235 -0.00011053 -0.000197307 -0.000181896 -0.00011053 -9.21281e-05 -0.000181896 -0.000166249 0.00045878 0.000458777 0.000396423 0.000401611 0.000458777 0.000463303 0.000401611 0.000408584 0.000396423 0.000401611 0.00032096 0.000331551 0.000401611 0.000408584 0.000331551 0.000341828 0.000463303 0.000471053 0.000408584 0.000416731 0.000471053 0.000480654 0.000416731 0.000425282 0.000408584 0.000416731 0.000341828 0.000351677 0.000416731 0.000425282 0.000351677 0.00036081 0.00032096 0.000331551 0.000238448 0.000253485 0.000331551 0.000341828 0.000253485 0.00026688 0.000238448 0.000253485 0.000153385 0.000171286 0.000253485 0.00026688 0.000171286 0.000186935 0.000341828 0.000351677 0.00026688 0.000278765 0.000351677 0.00036081 0.000278765 0.000289143 0.00026688 0.000278765 0.000186935 0.000200498 0.000278765 0.000289143 0.000200498 0.000212089 0.000480654 0.000490673 0.000425282 0.000433365 0.000490673 0.000499591 0.000433365 0.000440061 0.000425282 0.000433365 0.00036081 0.000368813 0.000433365 0.000440061 0.000368813 0.00037518 0.000499591 0.000505811 0.000440061 0.000444435 0.000505811 0.000508007 0.000444435 0.000445638 0.000440061 0.000444435 0.00037518 0.000379291 0.000444435 0.000445638 0.000379291 0.000380131 0.00036081 0.000368813 0.000289143 0.000297886 0.000368813 0.00037518 0.000297886 0.000304727 0.000289143 0.000297886 0.000212089 0.000221719 0.000297886 0.000304727 0.000221719 0.000229242 0.00037518 0.000379291 0.000304727 0.000309161 0.000379291 0.000380131 0.000309161 0.000310226 0.000304727 0.000309161 0.000229242 0.000234264 0.000309161 0.000310226 0.000234264 0.000235996 0.000153385 0.000171286 6.87807e-05 8.78401e-05 0.000171286 0.000186935 8.78401e-05 0.000104587 6.87807e-05 8.78401e-05 -1.34681e-05 5.25571e-06 8.78401e-05 0.000104587 5.25571e-06 2.19486e-05 0.000186935 0.000200498 0.000104587 0.000119093 0.000200498 0.000212089 0.000119093 0.000131463 0.000104587 0.000119093 2.19486e-05 3.65503e-05 0.000119093 0.000131463 3.65503e-05 4.91072e-05 -1.34681e-05 5.25571e-06 -9.21281e-05 -7.4868e-05 5.25571e-06 2.19486e-05 -7.4868e-05 -5.91926e-05 -9.21281e-05 -7.4868e-05 -0.000166249 -0.000151196 -7.4868e-05 -5.91926e-05 -0.000151196 -0.000137237 2.19486e-05 3.65503e-05 -5.91926e-05 -4.52715e-05 3.65503e-05 4.91072e-05 -4.52715e-05 -3.31197e-05 -5.91926e-05 -4.52715e-05 -0.000137237 -0.000124604 -4.52715e-05 -3.31197e-05 -0.000124604 -0.000113349 0.000212089 0.000221719 0.000131463 0.000141754 0.000221719 0.000229242 0.000141754 0.000149891 0.000131463 0.000141754 4.91072e-05 5.96727e-05 0.000141754 0.000149891 5.96727e-05 6.8232e-05 0.000229242 0.000234264 0.000149891 0.0001556 0.000234264 0.000235996 0.0001556 0.000158338 0.000149891 0.0001556 6.8232e-05 7.46438e-05 0.0001556 0.000158338 7.46438e-05 7.86249e-05 4.91072e-05 5.96727e-05 -3.31197e-05 -2.26899e-05 5.96727e-05 6.8232e-05 -2.26899e-05 -1.39376e-05 -3.31197e-05 -2.26899e-05 -0.000113349 -0.000103413 -2.26899e-05 -1.39376e-05 -0.000103413 -9.46829e-05 6.8232e-05 7.46438e-05 -1.39376e-05 -6.85748e-06 7.46438e-05 7.86249e-05 -6.85748e-06 -1.48321e-06 -1.39376e-05 -6.85748e-06 -9.46829e-05 -8.6994e-05 -6.85748e-06 -1.48321e-06 -8.6994e-05 -8.01556e-05 -0.000206022 -0.000220927 -0.00025638 -0.000270553 -0.000220927 -0.000228285 -0.000270553 -0.000278543 -0.00025638 -0.000270553 -0.000301636 -0.000315312 -0.000270553 -0.000278543 -0.000315312 -0.000323888 -0.000228285 -0.000228378 -0.000278543 -0.000280565 -0.000228378 -0.000222183 -0.000280565 -0.000277305 -0.000278543 -0.000280565 -0.000323888 -0.000327548 -0.000280565 -0.000277305 -0.000327548 -0.000326817 -0.000301636 -0.000315312 -0.000341257 -0.000354627 -0.000315312 -0.000323888 -0.000354627 -0.00036376 -0.000341257 -0.000354627 -0.000374666 -0.000387868 -0.000354627 -0.00036376 -0.000387868 -0.000397512 -0.000323888 -0.000327548 -0.00036376 -0.000368825 -0.000327548 -0.000326817 -0.000368825 -0.00037023 -0.00036376 -0.000368825 -0.000397512 -0.000403762 -0.000368825 -0.00037023 -0.000403762 -0.000406928 -0.000222183 -0.000211259 -0.000277305 -0.000269853 -0.000211259 -0.000197307 -0.000269853 -0.000259502 -0.000277305 -0.000269853 -0.000326817 -0.000322449 -0.000269853 -0.000259502 -0.000322449 -0.000315423 -0.000197307 -0.000181896 -0.000259502 -0.000247514 -0.000181896 -0.000166249 -0.000247514 -0.000234926 -0.000259502 -0.000247514 -0.000315423 -0.000306729 -0.000247514 -0.000234926 -0.000306729 -0.000297215 -0.000326817 -0.000322449 -0.00037023 -0.000368535 -0.000322449 -0.000315423 -0.000368535 -0.000364457 -0.00037023 -0.000368535 -0.000406928 -0.000407456 -0.000368535 -0.000364457 -0.000407456 -0.000405884 -0.000315423 -0.000306729 -0.000364457 -0.000358765 -0.000306729 -0.000297215 -0.000358765 -0.000352131 -0.000364457 -0.000358765 -0.000405884 -0.000402788 -0.000358765 -0.000352131 -0.000402788 -0.000398693 -0.000374666 -0.000387868 -0.00040131 -0.000414432 -0.000387868 -0.000397512 -0.000414432 -0.000424514 -0.00040131 -0.000414432 -0.000420711 -0.000433805 -0.000414432 -0.000424514 -0.000433805 -0.00044422 -0.000397512 -0.000403762 -0.000424514 -0.0004