# vtk DataFile Version 3.0
#This file was generated by the deal.II library on 2022/11/17 at 0:16:00
ASCII
DATASET UNSTRUCTURED_GRID

POINTS 4288 double
0 0.5 0
0.03125 0.5 0
0 0.53125 0
0.03125 0.53125 0
0.03125 0.5 0
0.0625 0.5 0
0.03125 0.53125 0
0.0625 0.53125 0
0 0.53125 0
0.03125 0.53125 0
0 0.5625 0
0.03125 0.5625 0
0.03125 0.53125 0
0.0625 0.53125 0
0.03125 0.5625 0
0.0625 0.5625 0
0.0625 0.5 0
0.09375 0.5 0
0.0625 0.53125 0
0.09375 0.53125 0
0.09375 0.5 0
0.125 0.5 0
0.09375 0.53125 0
0.125 0.53125 0
0.0625 0.53125 0
0.09375 0.53125 0
0.0625 0.5625 0
0.09375 0.5625 0
0.09375 0.53125 0
0.125 0.53125 0
0.09375 0.5625 0
0.125 0.5625 0
0 0.5625 0
0.03125 0.5625 0
0 0.59375 0
0.03125 0.59375 0
0.03125 0.5625 0
0.0625 0.5625 0
0.03125 0.59375 0
0.0625 0.59375 0
0 0.59375 0
0.03125 0.59375 0
0 0.625 0
0.03125 0.625 0
0.03125 0.59375 0
0.0625 0.59375 0
0.03125 0.625 0
0.0625 0.625 0
0.0625 0.5625 0
0.09375 0.5625 0
0.0625 0.59375 0
0.09375 0.59375 0
0.09375 0.5625 0
0.125 0.5625 0
0.09375 0.59375 0
0.125 0.59375 0
0.0625 0.59375 0
0.09375 0.59375 0
0.0625 0.625 0
0.09375 0.625 0
0.09375 0.59375 0
0.125 0.59375 0
0.09375 0.625 0
0.125 0.625 0
0.125 0.5 0
0.15625 0.5 0
0.125 0.53125 0
0.15625 0.53125 0
0.15625 0.5 0
0.1875 0.5 0
0.15625 0.53125 0
0.1875 0.53125 0
0.125 0.53125 0
0.15625 0.53125 0
0.125 0.5625 0
0.15625 0.5625 0
0.15625 0.53125 0
0.1875 0.53125 0
0.15625 0.5625 0
0.1875 0.5625 0
0.1875 0.5 0
0.21875 0.5 0
0.1875 0.53125 0
0.21875 0.53125 0
0.21875 0.5 0
0.25 0.5 0
0.21875 0.53125 0
0.25 0.53125 0
0.1875 0.53125 0
0.21875 0.53125 0
0.1875 0.5625 0
0.21875 0.5625 0
0.21875 0.53125 0
0.25 0.53125 0
0.21875 0.5625 0
0.25 0.5625 0
0.125 0.5625 0
0.15625 0.5625 0
0.125 0.59375 0
0.15625 0.59375 0
0.15625 0.5625 0
0.1875 0.5625 0
0.15625 0.59375 0
0.1875 0.59375 0
0.125 0.59375 0
0.15625 0.59375 0
0.125 0.625 0
0.15625 0.625 0
0.15625 0.59375 0
0.1875 0.59375 0
0.15625 0.625 0
0.1875 0.625 0
0.1875 0.5625 0
0.21875 0.5625 0
0.1875 0.59375 0
0.21875 0.59375 0
0.21875 0.5625 0
0.25 0.5625 0
0.21875 0.59375 0
0.25 0.59375 0
0.1875 0.59375 0
0.21875 0.59375 0
0.1875 0.625 0
0.21875 0.625 0
0.21875 0.59375 0
0.25 0.59375 0
0.21875 0.625 0
0.25 0.625 0
0 0.625 0
0.03125 0.625 0
0 0.65625 0
0.03125 0.65625 0
0.03125 0.625 0
0.0625 0.625 0
0.03125 0.65625 0
0.0625 0.65625 0
0 0.65625 0
0.03125 0.65625 0
0 0.6875 0
0.03125 0.6875 0
0.03125 0.65625 0
0.0625 0.65625 0
0.03125 0.6875 0
0.0625 0.6875 0
0.0625 0.625 0
0.09375 0.625 0
0.0625 0.65625 0
0.09375 0.65625 0
0.09375 0.625 0
0.125 0.625 0
0.09375 0.65625 0
0.125 0.65625 0
0.0625 0.65625 0
0.09375 0.65625 0
0.0625 0.6875 0
0.09375 0.6875 0
0.09375 0.65625 0
0.125 0.65625 0
0.09375 0.6875 0
0.125 0.6875 0
0 0.6875 0
0.03125 0.6875 0
0 0.71875 0
0.03125 0.71875 0
0.03125 0.6875 0
0.0625 0.6875 0
0.03125 0.71875 0
0.0625 0.71875 0
0 0.71875 0
0.03125 0.71875 0
0 0.75 0
0.03125 0.75 0
0.03125 0.71875 0
0.0625 0.71875 0
0.03125 0.75 0
0.0625 0.75 0
0.0625 0.6875 0
0.09375 0.6875 0
0.0625 0.71875 0
0.09375 0.71875 0
0.09375 0.6875 0
0.125 0.6875 0
0.09375 0.71875 0
0.125 0.71875 0
0.0625 0.71875 0
0.09375 0.71875 0
0.0625 0.75 0
0.09375 0.75 0
0.09375 0.71875 0
0.125 0.71875 0
0.09375 0.75 0
0.125 0.75 0
0.125 0.625 0
0.15625 0.625 0
0.125 0.65625 0
0.15625 0.65625 0
0.15625 0.625 0
0.1875 0.625 0
0.15625 0.65625 0
0.1875 0.65625 0
0.125 0.65625 0
0.15625 0.65625 0
0.125 0.6875 0
0.15625 0.6875 0
0.15625 0.65625 0
0.1875 0.65625 0
0.15625 0.6875 0
0.1875 0.6875 0
0.1875 0.625 0
0.21875 0.625 0
0.1875 0.65625 0
0.21875 0.65625 0
0.21875 0.625 0
0.25 0.625 0
0.21875 0.65625 0
0.25 0.65625 0
0.1875 0.65625 0
0.21875 0.65625 0
0.1875 0.6875 0
0.21875 0.6875 0
0.21875 0.65625 0
0.25 0.65625 0
0.21875 0.6875 0
0.25 0.6875 0
0.125 0.6875 0
0.15625 0.6875 0
0.125 0.71875 0
0.15625 0.71875 0
0.15625 0.6875 0
0.1875 0.6875 0
0.15625 0.71875 0
0.1875 0.71875 0
0.125 0.71875 0
0.15625 0.71875 0
0.125 0.75 0
0.15625 0.75 0
0.15625 0.71875 0
0.1875 0.71875 0
0.15625 0.75 0
0.1875 0.75 0
0.1875 0.6875 0
0.21875 0.6875 0
0.1875 0.71875 0
0.21875 0.71875 0
0.21875 0.6875 0
0.25 0.6875 0
0.21875 0.71875 0
0.25 0.71875 0
0.1875 0.71875 0
0.21875 0.71875 0
0.1875 0.75 0
0.21875 0.75 0
0.21875 0.71875 0
0.25 0.71875 0
0.21875 0.75 0
0.25 0.75 0
0.25 0.5 0
0.28125 0.5 0
0.25 0.53125 0
0.28125 0.53125 0
0.28125 0.5 0
0.3125 0.5 0
0.28125 0.53125 0
0.3125 0.53125 0
0.25 0.53125 0
0.28125 0.53125 0
0.25 0.5625 0
0.28125 0.5625 0
0.28125 0.53125 0
0.3125 0.53125 0
0.28125 0.5625 0
0.3125 0.5625 0
0.3125 0.5 0
0.34375 0.5 0
0.3125 0.53125 0
0.34375 0.53125 0
0.34375 0.5 0
0.375 0.5 0
0.34375 0.53125 0
0.375 0.53125 0
0.3125 0.53125 0
0.34375 0.53125 0
0.3125 0.5625 0
0.34375 0.5625 0
0.34375 0.53125 0
0.375 0.53125 0
0.34375 0.5625 0
0.375 0.5625 0
0.25 0.5625 0
0.28125 0.5625 0
0.25 0.59375 0
0.28125 0.59375 0
0.28125 0.5625 0
0.3125 0.5625 0
0.28125 0.59375 0
0.3125 0.59375 0
0.25 0.59375 0
0.28125 0.59375 0
0.25 0.625 0
0.28125 0.625 0
0.28125 0.59375 0
0.3125 0.59375 0
0.28125 0.625 0
0.3125 0.625 0
0.3125 0.5625 0
0.34375 0.5625 0
0.3125 0.59375 0
0.34375 0.59375 0
0.34375 0.5625 0
0.375 0.5625 0
0.34375 0.59375 0
0.375 0.59375 0
0.3125 0.59375 0
0.34375 0.59375 0
0.3125 0.625 0
0.34375 0.625 0
0.34375 0.59375 0
0.375 0.59375 0
0.34375 0.625 0
0.375 0.625 0
0.375 0.5 0
0.40625 0.5 0
0.375 0.53125 0
0.40625 0.53125 0
0.40625 0.5 0
0.4375 0.5 0
0.40625 0.53125 0
0.4375 0.53125 0
0.375 0.53125 0
0.40625 0.53125 0
0.375 0.5625 0
0.40625 0.5625 0
0.40625 0.53125 0
0.4375 0.53125 0
0.40625 0.5625 0
0.4375 0.5625 0
0.375 0.5625 0
0.40625 0.5625 0
0.375 0.59375 0
0.40625 0.59375 0
0.40625 0.5625 0
0.4375 0.5625 0
0.40625 0.59375 0
0.4375 0.59375 0
0.375 0.59375 0
0.40625 0.59375 0
0.375 0.625 0
0.40625 0.625 0
0.40625 0.59375 0
0.4375 0.59375 0
0.40625 0.625 0
0.4375 0.625 0
0.4375 0.5625 0
0.46875 0.5625 0
0.4375 0.59375 0
0.46875 0.59375 0
0.46875 0.5625 0
0.5 0.5625 0
0.46875 0.59375 0
0.5 0.59375 0
0.4375 0.59375 0
0.46875 0.59375 0
0.4375 0.625 0
0.46875 0.625 0
0.46875 0.59375 0
0.5 0.59375 0
0.46875 0.625 0
0.5 0.625 0
0.25 0.625 0
0.28125 0.625 0
0.25 0.65625 0
0.28125 0.65625 0
0.28125 0.625 0
0.3125 0.625 0
0.28125 0.65625 0
0.3125 0.65625 0
0.25 0.65625 0
0.28125 0.65625 0
0.25 0.6875 0
0.28125 0.6875 0
0.28125 0.65625 0
0.3125 0.65625 0
0.28125 0.6875 0
0.3125 0.6875 0
0.3125 0.625 0
0.34375 0.625 0
0.3125 0.65625 0
0.34375 0.65625 0
0.34375 0.625 0
0.375 0.625 0
0.34375 0.65625 0
0.375 0.65625 0
0.3125 0.65625 0
0.34375 0.65625 0
0.3125 0.6875 0
0.34375 0.6875 0
0.34375 0.65625 0
0.375 0.65625 0
0.34375 0.6875 0
0.375 0.6875 0
0.25 0.6875 0
0.28125 0.6875 0
0.25 0.71875 0
0.28125 0.71875 0
0.28125 0.6875 0
0.3125 0.6875 0
0.28125 0.71875 0
0.3125 0.71875 0
0.25 0.71875 0
0.28125 0.71875 0
0.25 0.75 0
0.28125 0.75 0
0.28125 0.71875 0
0.3125 0.71875 0
0.28125 0.75 0
0.3125 0.75 0
0.3125 0.6875 0
0.34375 0.6875 0
0.3125 0.71875 0
0.34375 0.71875 0
0.34375 0.6875 0
0.375 0.6875 0
0.34375 0.71875 0
0.375 0.71875 0
0.3125 0.71875 0
0.34375 0.71875 0
0.3125 0.75 0
0.34375 0.75 0
0.34375 0.71875 0
0.375 0.71875 0
0.34375 0.75 0
0.375 0.75 0
0.375 0.625 0
0.40625 0.625 0
0.375 0.65625 0
0.40625 0.65625 0
0.40625 0.625 0
0.4375 0.625 0
0.40625 0.65625 0
0.4375 0.65625 0
0.375 0.65625 0
0.40625 0.65625 0
0.375 0.6875 0
0.40625 0.6875 0
0.40625 0.65625 0
0.4375 0.65625 0
0.40625 0.6875 0
0.4375 0.6875 0
0.4375 0.625 0
0.46875 0.625 0
0.4375 0.65625 0
0.46875 0.65625 0
0.46875 0.625 0
0.5 0.625 0
0.46875 0.65625 0
0.5 0.65625 0
0.4375 0.65625 0
0.46875 0.65625 0
0.4375 0.6875 0
0.46875 0.6875 0
0.46875 0.65625 0
0.5 0.65625 0
0.46875 0.6875 0
0.5 0.6875 0
0.375 0.6875 0
0.40625 0.6875 0
0.375 0.71875 0
0.40625 0.71875 0
0.40625 0.6875 0
0.4375 0.6875 0
0.40625 0.71875 0
0.4375 0.71875 0
0.375 0.71875 0
0.40625 0.71875 0
0.375 0.75 0
0.40625 0.75 0
0.40625 0.71875 0
0.4375 0.71875 0
0.40625 0.75 0
0.4375 0.75 0
0.4375 0.6875 0
0.46875 0.6875 0
0.4375 0.71875 0
0.46875 0.71875 0
0.46875 0.6875 0
0.5 0.6875 0
0.46875 0.71875 0
0.5 0.71875 0
0.4375 0.71875 0
0.46875 0.71875 0
0.4375 0.75 0
0.46875 0.75 0
0.46875 0.71875 0
0.5 0.71875 0
0.46875 0.75 0
0.5 0.75 0
0 0.75 0
0.03125 0.75 0
0 0.78125 0
0.03125 0.78125 0
0.03125 0.75 0
0.0625 0.75 0
0.03125 0.78125 0
0.0625 0.78125 0
0 0.78125 0
0.03125 0.78125 0
0 0.8125 0
0.03125 0.8125 0
0.03125 0.78125 0
0.0625 0.78125 0
0.03125 0.8125 0
0.0625 0.8125 0
0.0625 0.75 0
0.09375 0.75 0
0.0625 0.78125 0
0.09375 0.78125 0
0.09375 0.75 0
0.125 0.75 0
0.09375 0.78125 0
0.125 0.78125 0
0.0625 0.78125 0
0.09375 0.78125 0
0.0625 0.8125 0
0.09375 0.8125 0
0.09375 0.78125 0
0.125 0.78125 0
0.09375 0.8125 0
0.125 0.8125 0
0 0.8125 0
0.03125 0.8125 0
0 0.84375 0
0.03125 0.84375 0
0.03125 0.8125 0
0.0625 0.8125 0
0.03125 0.84375 0
0.0625 0.84375 0
0 0.84375 0
0.03125 0.84375 0
0 0.875 0
0.03125 0.875 0
0.03125 0.84375 0
0.0625 0.84375 0
0.03125 0.875 0
0.0625 0.875 0
0.0625 0.8125 0
0.09375 0.8125 0
0.0625 0.84375 0
0.09375 0.84375 0
0.09375 0.8125 0
0.125 0.8125 0
0.09375 0.84375 0
0.125 0.84375 0
0.0625 0.84375 0
0.09375 0.84375 0
0.0625 0.875 0
0.09375 0.875 0
0.09375 0.84375 0
0.125 0.84375 0
0.09375 0.875 0
0.125 0.875 0
0.125 0.75 0
0.15625 0.75 0
0.125 0.78125 0
0.15625 0.78125 0
0.15625 0.75 0
0.1875 0.75 0
0.15625 0.78125 0
0.1875 0.78125 0
0.125 0.78125 0
0.15625 0.78125 0
0.125 0.8125 0
0.15625 0.8125 0
0.15625 0.78125 0
0.1875 0.78125 0
0.15625 0.8125 0
0.1875 0.8125 0
0.1875 0.75 0
0.21875 0.75 0
0.1875 0.78125 0
0.21875 0.78125 0
0.21875 0.75 0
0.25 0.75 0
0.21875 0.78125 0
0.25 0.78125 0
0.1875 0.78125 0
0.21875 0.78125 0
0.1875 0.8125 0
0.21875 0.8125 0
0.21875 0.78125 0
0.25 0.78125 0
0.21875 0.8125 0
0.25 0.8125 0
0.125 0.8125 0
0.15625 0.8125 0
0.125 0.84375 0
0.15625 0.84375 0
0.15625 0.8125 0
0.1875 0.8125 0
0.15625 0.84375 0
0.1875 0.84375 0
0.125 0.84375 0
0.15625 0.84375 0
0.125 0.875 0
0.15625 0.875 0
0.15625 0.84375 0
0.1875 0.84375 0
0.15625 0.875 0
0.1875 0.875 0
0.1875 0.8125 0
0.21875 0.8125 0
0.1875 0.84375 0
0.21875 0.84375 0
[...]
POINT_DATA 4288
SCALARS x_dis double 1
LOOKUP_TABLE default
0.000754139 0.00071969 0.000722504 0.000688096 0.00071969 0.000683626 0.000688096 0.000652409 0.000722504 0.000688096 0.000683526 0.000648739 0.000688096 0.000652409 0.000648739 0.000613051 0.000683626 0.000647357 0.000652409 0.000616787 0.000647357 0.000611961 0.000616787 0.00058225 0.000652409 0.000616787 0.000613051 0.000577661 0.000616787 0.00058225 0.000577661 0.000543465 0.000683526 0.000648739 0.000638056 0.00060251 0.000648739 0.000613051 0.00060251 0.00056648 0.000638056 0.00060251 0.000587231 0.000550607 0.00060251 0.00056648 0.000550607 0.000513955 0.000613051 0.000577661 0.00056648 0.000530958 0.000577661 0.000543465 0.000530958 0.000496665 0.00056648 0.000530958 0.000513955 0.000478014 0.000530958 0.000496665 0.000478014 0.000443304 0.000611961 0.000578286 0.00058225 0.000549589 0.000578286 0.000547014 0.000549589 0.000519426 0.00058225 0.000549589 0.000543465 0.000511136 0.000549589 0.000519426 0.000511136 0.00048117 0.000547014 0.000518709 0.000519426 0.000492257 0.000518709 0.000493866 0.000492257 0.00046849 0.000519426 0.000492257 0.00048117 0.000453911 0.000492257 0.00046849 0.000453911 0.000429564 0.000543465 0.000511136 0.000496665 0.000464114 0.000511136 0.00048117 0.000464114 0.000433634 0.000496665 0.000464114 0.000443304 0.000410154 0.000464114 0.000433634 0.000410154 0.000378723 0.00048117 0.000453911 0.000433634 0.000405384 0.000453911 0.000429564 0.000405384 0.000379334 0.000433634 0.000405384 0.000378723 0.000348989 0.000405384 0.000379334 0.000348989 0.000320735 0.000587231 0.000550607 0.000532417 0.000494468 0.000550607 0.000513955 0.000494468 0.000456984 0.000532417 0.000494468 0.000475138 0.000435699 0.000494468 0.000456984 0.000435699 0.000397247 0.000513955 0.000478014 0.000456984 0.00042043 0.000478014 0.000443304 0.00042043 0.000385109 0.000456984 0.00042043 0.000397247 0.000359973 0.00042043 0.000385109 0.000359973 0.000323966 0.000475138 0.000435699 0.000417008 0.000375992 0.000435699 0.000397247 0.000375992 0.000336506 0.000417008 0.000375992 0.000359665 0.000317058 0.000375992 0.000336506 0.000317058 0.000276532 0.000397247 0.000359973 0.000336506 0.000298479 0.000359973 0.000323966 0.000298479 0.000261803 0.000336506 0.000298479 0.000276532 0.000237778 0.000298479 0.000261803 0.000237778 0.000200511 0.000443304 0.000410154 0.000385109 0.000351171 0.000410154 0.000378723 0.000351171 0.000318617 0.000385109 0.000351171 0.000323966 0.00028921 0.000351171 0.000318617 0.00028921 0.000255574 0.000378723 0.000348989 0.000318617 0.000287286 0.000348989 0.000320735 0.000287286 0.000256848 0.000318617 0.000287286 0.000255574 0.000222808 0.000287286 0.000256848 0.000222808 0.000190539 0.000323966 0.00028921 0.000261803 0.000226313 0.00028921 0.000255574 0.000226313 0.000191777 0.000261803 0.000226313 0.000200511 0.000164437 0.000226313 0.000191777 0.000164437 0.000129247 0.000255574 0.000222808 0.000191777 0.000157893 0.000222808 0.000190539 0.000157893 0.000124296 0.000191777 0.000157893 0.000129247 9.46122e-05 0.000157893 0.000124296 9.46122e-05 6.02002e-05 0.000493866 0.000472958 0.00046849 0.000448473 0.000472958 0.000456511 0.000448473 0.000432523 0.00046849 0.000448473 0.000429564 0.000408182 0.000448473 0.000432523 0.000408182 0.00038961 0.000456511 0.000445214 0.000432523 0.000420939 0.000445214 0.000440122 0.000420939 0.000413982 0.000432523 0.000420939 0.00038961 0.000373351 0.000420939 0.000413982 0.000373351 0.000358227 0.000429564 0.000408182 0.000379334 0.00035523 0.000408182 0.00038961 0.00035523 0.000332497 0.000379334 0.00035523 0.000320735 0.0002935 0.00035523 0.000332497 0.0002935 0.000266513 0.00038961 0.000373351 0.000332497 0.000310076 0.000373351 0.000358227 0.000310076 0.000286138 0.000332497 0.000310076 0.000266513 0.00023861 0.000310076 0.000286138 0.00023861 0.00020821 0.000440122 0.000443184 0.000413982 0.000411603 0.000443184 0.000458856 0.000411603 0.000412107 0.000413982 0.000411603 0.000358227 0.000341503 0.000411603 0.000412107 0.000341503 0.000317123 0.000358227 0.000341503 0.000286138 0.000257795 0.000341503 0.000317123 0.000257795 0.000221501 0.000286138 0.000257795 0.00020821 0.000173584 0.000257795 0.000221501 0.000173584 0.000134071 0.000317123 0.00027635 0.000221501 0.000177309 0.00027635 0.000227872 0.000177309 0.000135761 0.000221501 0.000177309 0.000134071 9.23989e-05 0.000177309 0.000135761 9.23989e-05 5.56462e-05 0.000320735 0.0002935 0.000256848 0.000226769 0.0002935 0.000266513 0.000226769 0.000196306 0.000256848 0.000226769 0.000190539 0.000158269 0.000226769 0.000196306 0.000158269 0.000125411 0.000266513 0.00023861 0.000196306 0.000164522 0.00023861 0.00020821 0.000164522 0.000130447 0.000196306 0.000164522 0.000125411 9.1369e-05 0.000164522 0.000130447 9.1369e-05 5.57469e-05 0.000190539 0.000158269 0.000124296 9.05792e-05 0.000158269 0.000125411 9.05792e-05 5.63468e-05 0.000124296 9.05792e-05 6.02002e-05 2.57057e-05 9.05792e-05 5.63468e-05 2.57057e-05 -9.09522e-06 0.000125411 9.1369e-05 5.63468e-05 2.13153e-05 9.1369e-05 5.57469e-05 2.13153e-05 -1.45193e-05 5.63468e-05 2.13153e-05 -9.09522e-06 -4.42583e-05 2.13153e-05 -1.45193e-05 -4.42583e-05 -7.95571e-05 0.00020821 0.000173584 0.000130447 9.35256e-05 0.000173584 0.000134071 9.35256e-05 5.44648e-05 0.000130447 9.35256e-05 5.57469e-05 1.86975e-05 9.35256e-05 5.44648e-05 1.86975e-05 -1.86404e-05 0.000134071 9.23989e-05 5.44648e-05 1.60687e-05 9.23989e-05 5.56462e-05 1.60687e-05 -1.68881e-05 5.44648e-05 1.60687e-05 -1.86404e-05 -5.38973e-05 1.60687e-05 -1.68881e-05 -5.38973e-05 -8.38287e-05 5.57469e-05 1.86975e-05 -1.45193e-05 -5.06626e-05 1.86975e-05 -1.86404e-05 -5.06626e-05 -8.59296e-05 -1.45193e-05 -5.06626e-05 -7.95571e-05 -0.000114366 -5.06626e-05 -8.59296e-05 -0.000114366 -0.000147593 -1.86404e-05 -5.38973e-05 -8.59296e-05 -0.000118432 -5.38973e-05 -8.38287e-05 -0.000118432 -0.000145887 -8.59296e-05 -0.000118432 -0.000147593 -0.000177744 -0.000118432 -0.000145887 -0.000177744 -0.000203158 0.000359665 0.000317058 0.000304711 0.000260563 0.000317058 0.000276532 0.000260563 0.00021904 0.000304711 0.000260563 0.00025366 0.000208079 0.000260563 0.00021904 0.000208079 0.000165641 0.000276532 0.000237778 0.00021904 0.000179625 0.000237778 0.000200511 0.000179625 0.000141875 0.00021904 0.000179625 0.000165641 0.000125651 0.000179625 0.000141875 0.000125651 8.75344e-05 0.00025366 0.000208079 0.000207907 0.000161042 0.000208079 0.000165641 0.000161042 0.000117797 0.000207907 0.000161042 0.000168683 0.000120723 0.000161042 0.000117797 0.000120723 7.67997e-05 0.000165641 0.000125651 0.000117797 7.73299e-05 0.000125651 8.75344e-05 7.73299e-05 3.89552e-05 0.000117797 7.73299e-05 7.67997e-05 3.59535e-05 7.73299e-05 3.89552e-05 3.59535e-05 -2.59045e-06 0.000200511 0.000164437 0.000141875 0.00010539 0.000164437 0.000129247 0.00010539 6.97975e-05 0.000141875 0.00010539 8.75344e-05 5.08002e-05 0.00010539 6.97975e-05 5.08002e-05 1.50251e-05 0.000129247 9.46122e-05 6.97975e-05 3.47562e-05 9.46122e-05 6.02002e-05 3.47562e-05 -2.965e-08 6.97975e-05 3.47562e-05 1.50251e-05 -2.01428e-05 3.47562e-05 -2.965e-08 -2.01428e-05 -5.49695e-05 8.75344e-05 5.08002e-05 3.89552e-05 2.10464e-06 5.08002e-05 1.50251e-05 2.10464e-06 -3.36879e-05 3.89552e-05 2.10464e-06 -2.59045e-06 -3.94635e-05 2.10464e-06 -3.36879e-05 -3.94635e-05 -7.51684e-05 1.50251e-05 -2.01428e-05 -3.36879e-05 -6.87849e-05 -2.01428e-05 -5.49695e-05 -6.87849e-05 -0.000103434 -3.36879e-05 -6.87849e-05 -7.51684e-05 -0.00011008 -6.87849e-05 -0.000103434 -0.00011008 -0.000144438 0.000168683 0.000120723 0.00013704 8.81996e-05 0.000120723 7.67997e-05 8.81996e-05 4.3739e-05 0.00013704 8.81996e-05 0.000113819 6.4335e-05 8.81996e-05 4.3739e-05 6.4335e-05 1.9486e-05 7.67997e-05 3.59535e-05 4.3739e-05 2.60779e-06 3.59535e-05 -2.59045e-06 2.60779e-06 -3.6038e-05 4.3739e-05 2.60779e-06 1.9486e-05 -2.18423e-05 2.60779e-06 -3.6038e-05 -2.18423e-05 -6.05436e-05 0.000113819 6.4335e-05 9.96357e-05 4.97598e-05 6.4335e-05 1.9486e-05 4.97598e-05 4.67626e-06 9.96357e-05 4.97598e-05 9.48658e-05 4.48584e-05 4.97598e-05 4.67626e-06 4.48584e-05 -3.03602e-07 1.9486e-05 -2.18423e-05 4.67626e-06 -3.67675e-05 -2.18423e-05 -6.05436e-05 -3.67675e-05 -7.54947e-05 4.67626e-06 -3.67675e-05 -3.03602e-07 -4.17853e-05 -3.67675e-05 -7.54947e-05 -4.17853e-05 -8.05199e-05 -2.59045e-06 -3.94635e-05 -3.6038e-05 -7.28794e-05 -3.94635e-05 -7.51684e-05 -7.28794e-05 -0.00010845 -3.6038e-05 -7.28794e-05 -6.05436e-05 -9.73346e-05 -7.28794e-05 -0.00010845 -9.73346e-05 -0.000132771 -7.51684e-05 -0.00011008 -0.00010845 -0.000143136 -0.00011008 -0.000144438 -0.000143136 -0.000177176 -0.00010845 -0.000143136 -0.000132771 -0.000167253 -0.000143136 -0.000177176 -0.000167253 -0.000201017 -6.05436e-05 -9.73346e-05 -7.54947e-05 -0.000112244 -9.73346e-05 -0.000132771 -0.000112244 -0.000147586 -7.54947e-05 -0.000112244 -8.05199e-05 -0.000117253 -0.000112244 -0.000147586 -0.000117253 -0.000152561 -0.000132771 -0.000167253 -0.000147586 -0.000181927 -0.000167253 -0.000201017 -0.000181927 -0.000215507 -0.000147586 -0.000181927 -0.000152561 -0.000186852 -0.000181927 -0.000215507 -0.000186852 -0.000220368 6.02002e-05 2.57057e-05 -2.965e-08 -3.47784e-05 2.57057e-05 -9.09522e-06 -3.47784e-05 -6.95849e-05 -2.965e-08 -3.47784e-05 -5.49695e-05 -8.96096e-05 -3.47784e-05 -6.95849e-05 -8.96096e-05 -0.000124071 -9.09522e-06 -4.42583e-05 -6.95849e-05 -0.000104358 -4.42583e-05 -7.95571e-05 -0.000104358 -0.000138752 -6.95849e-05 -0.000104358 -0.000124071 -0.000158178 -0.000104358 -0.000138752 -0.000158178 -0.000191533 -5.49695e-05 -8.96096e-05 -0.000103434 -0.000137748 -8.96096e-05 -0.000124071 -0.000137748 -0.000171684 -0.000103434 -0.000137748 -0.000144438 -0.000178331 -0.000137748 -0.000171684 -0.000178331 -0.000211689 -0.000124071 -0.000158178 -0.000171684 -0.000205022 -0.000158178 -0.000191533 -0.000205022 -0.000237348 -0.000171684 -0.000205022 -0.000211689 -0.000244271 -0.000205022 -0.000237348 -0.000244271 -0.000275671 -7.95571e-05 -0.000114366 -0.000138752 -0.000172114 -0.000114366 -0.000147593 -0.000172114 -0.000203481 -0.000138752 -0.000172114 -0.000191533 -0.000223504 -0.000172114 -0.000203481 -0.000223504 -0.000253247 -0.000147593 -0.000177744 -0.000203481 -0.000231657 -0.000177744 -0.000203158 -0.000231657 -0.000255388 -0.000203481 -0.000231657 -0.000253247 -0.000279785 -0.000231657 -0.000255388 -0.000279785 -0.000302135 -0.000191533 -0.000223504 -0.000237348 -0.00026807 -0.000223504 -0.000253247 -0.00026807 -0.000296443 -0.000237348 -0.00026807 -0.000275671 -0.000305332 -0.00026807 -0.000296443 -0.000305332 -0.000332591 -0.000253247 -0.000279785 -0.000296443 -0.000321646 -0.000279785 -0.000302135 -0.000321646 -0.000342882 -0.000296443 -0.000321646 -0.000332591 -0.000356737 -0.000321646 -0.000342882 -0.000356737 -0.000377095 -0.000144438 -0.000178331 -0.000177176 -0.000210648 -0.000178331 -0.000211689 -0.000210648 -0.000243469 -0.000177176 -0.000210648 -0.000201017 -0.000234141 -0.000210648 -0.000243469 -0.000234141 -0.000266534 -0.000211689 -0.000244271 -0.000243469 -0.000275394 -0.000244271 -0.000275671 -0.000275394 -0.000306026 -0.000243469 -0.000275394 -0.000266534 -0.000297953 -0.000275394 -0.000306026 -0.000297953 -0.000328013 -0.000201017 -0.000234141 -0.000215507 -0.000248402 -0.000234141 -0.000266534 -0.000248402 -0.000280521 -0.000215507 -0.000248402 -0.000220368 -0.000253183 -0.000248402 -0.000280521 -0.000253183 -0.000285209 -0.000266534 -0.000297953 -0.000280521 -0.000311624 -0.000297953 -0.000328013 -0.000311624 -0.000341331 -0.000280521 -0.000311624 -0.000285209 -0.000316203 -0.000311624 -0.000341331 -0.000316203 -0.000345792 -0.000275671 -0.000305332 -0.000306026 -0.000334843 -0.000305332 -0.000332591 -0.000334843 -0.00036124 -0.000306026 -0.000334843 -0.000328013 -0.000356218 -0.000334843 -0.00036124 -0.000356218 -0.000382003 -0.000332591 -0.000356737 -0.00036124 -0.000384587 -0.000356737 -0.000377095 -0.000384587 -0.000404282 -0.00036124 -0.000384587 -0.000382003 -0.00040479 -0.000384587 -0.000404282 -0.00040479 -0.000424023 -0.000328013 -0.000356218 -0.000341331 -0.000369164 -0.000356218 -0.000382003 -0.000369164 -0.000394584 -0.000341331 -0.000369164 -0.000345792 -0.000373501 -0.000369164 -0.000394584 -0.000373501 -0.000398799 -0.000382003 -0.00040479 -0.000394584 -0.000417041 -0.00040479 -0.000424023 -0.000417041 -0.000435999 -0.000394584 -0.000417041 -0.000398799 -0.000421146 -0.000417041 -0.000435999 -0.000421146 -0.000440014 0.000566902 0.000535647 0.000367179 0.000376119 0.000535647 0.000505657 0.000376119 0.000375214 0.000367179 0.000376119 0.000217644 0.000236186 0.000376119 0.000375214 0.000236186 0.000250062 0.000227872 0.000207123 0.000135761 0.000111989 0.000207123 0.000217644 0.000111989 0.000110882 0.000135761 0.000111989 5.56462e-05 3.20557e-05 0.000111989 0.000110882 3.20557e-05 2.4811e-05 0.000217644 0.000236186 0.000110882 0.00012325 0.000236186 0.000250062 0.00012325 0.000139411 0.000110882 0.00012325 2.4811e-05 3.07139e-05 0.00012325 0.000139411 3.07139e-05 4.39453e-05 0.000505657 0.000478997 0.000375214 0.000370369 0.000478997 0.000456509 0.000370369 0.000364555 0.000375214 0.000370369 0.000250062 0.000259453 0.000370369 0.000364555 0.000259453 0.000266004 0.000456509 0.000438769 0.000364555 0.000359414 0.000438769 0.000425971 0.000359414 0.000355847 0.000364555 0.000359414 0.000266004 0.000271024 0.000359414 0.000355847 0.000271024 0.000275456 0.000250062 0.000259453 0.000139411 0.000154835 0.000259453 0.000266004 0.000154835 0.000168396 0.000139411 0.000154835 4.39453e-05 5.9914e-05 0.000154835 0.000168396 5.9914e-05 7.60695e-05 0.000266004 0.000271024 0.000168396 0.00018016 0.000271024 0.000275456 0.00018016 0.000190514 0.000168396 0.00018016 7.60695e-05 9.13219e-05 0.00018016 0.000190514 9.13219e-05 0.000105343 5.56462e-05 3.20557e-05 -1.68881e-05 -3.96006e-05 3.20557e-05 2.4811e-05 -3.96006e-05 -4.97613e-05 -1.68881e-05 -3.96006e-05 -8.38287e-05 -0.000105372 -3.96006e-05 -4.97613e-05 -0.000105372 -0.000116893 2.4811e-05 3.07139e-05 -4.97613e-05 -4.85239e-05 3.07139e-05 4.39453e-05 -4.85239e-05 -3.9154e-05 -4.97613e-05 -4.85239e-05 -0.000116893 -0.000118732 -4.85239e-05 -3.9154e-05 -0.000118732 -0.000112757 -8.38287e-05 -0.000105372 -0.000145887 -0.000166235 -0.000105372 -0.000116893 -0.000166235 -0.000178295 -0.000145887 -0.000166235 -0.000203158 -0.000222383 -0.000166235 -0.000178295 -0.000222383 -0.000234552 -0.000116893 -0.000118732 -0.000178295 -0.000182106 -0.000118732 -0.000112757 -0.000182106 -0.000178765 -0.000178295 -0.000182106 -0.000234552 -0.000239594 -0.000182106 -0.000178765 -0.000239594 -0.00023819 4.39453e-05 5.9914e-05 -3.9154e-05 -2.51449e-05 5.9914e-05 7.60695e-05 -2.51449e-05 -9.15982e-06 -3.9154e-05 -2.51449e-05 -0.000112757 -0.000101394 -2.51449e-05 -9.15982e-06 -0.000101394 -8.69191e-05 7.60695e-05 9.13219e-05 -9.15982e-06 7.14238e-06 9.13219e-05 0.000105343 7.14238e-06 2.29028e-05 -9.15982e-06 7.14238e-06 -8.69191e-05 -7.10653e-05 7.14238e-06 2.29028e-05 -7.10653e-05 -5.49462e-05 -0.000112757 -0.000101394 -0.000178765 -0.000169929 -0.000101394 -8.69191e-05 -0.000169929 -0.000157398 -0.000178765 -0.000169929 -0.00023819 -0.000231482 -0.000169929 -0.000157398 -0.000231482 -0.000220849 -8.69191e-05 -7.10653e-05 -0.000157398 -0.000142731 -7.10653e-05 -5.49462e-05 -0.000142731 -0.000127089 -0.000157398 -0.000142731 -0.000220849 -0.000207611 -0.000142731 -0.000127089 -0.000207611 -0.000192853 0.000425971 0.000417984 0.000355847 0.000354273 0.000417984 0.000414407 0.000354273 0.000354754 0.000355847 0.000354273 0.000275456 0.00027991 0.000354273 0.000354754 0.00027991 0.000284714 0.000414407 0.000414605 0.000354754 0.00035708 0.000414605 0.000417713 0.00035708 0.00036082 0.000354754 0.00035708 0.000284714 0.000289966 0.00035708 0.00036082 0.000289966 0.000295588 0.000275456 0.00027991 0.000190514 0.000199874 0.00027991 0.000284714 0.000199874 0.00020858 0.000190514 0.000199874 0.000105343 0.000118159 0.000199874 0.00020858 0.000118159 0.000129933 0.000284714 0.000289966 0.00020858 0.000216862 0.000289966 0.000295588 0.000216862 0.000224841 0.00020858 0.000216862 0.000129933 0.000140867 0.000216862 0.000224841 0.000140867 0.00015114 0.000417713 0.000422643 0.00036082 0.00036537 0.000422643 0.000428074 0.00036537 0.000369988 0.00036082 0.00036537 0.000295588 0.000301364 0.00036537 0.000369988 0.000301364 0.000306967 0.000428074 0.000432486 0.000369988 0.000373825 0.000432486 0.000434482 0.000373825 0.000375959 0.000369988 0.000373825 0.000306967 0.000311931 0.000373825 0.000375959 0.000311931 0.000315392 0.000295588 0.000301364 0.000224841 0.00023254 0.000301364 0.000306967 0.00023254 0.000239868 0.000224841 0.00023254 0.00015114 0.000160874 0.00023254 0.000239868 0.000160874 0.000170092 0.000306967 0.000311931 0.000239868 0.000246534 0.000311931 0.000315392 0.000246534 0.000251807 0.000239868 0.000246534 0.000170092 0.000178634 0.000246534 0.000251807 0.000178634 0.000186029 0.000105343 0.000118159 2.29028e-05 3.77602e-05 0.000118159 0.000129933 3.77602e-05 5.16383e-05 2.29028e-05 3.77602e-05 -5.49462e-05 -3.91915e-05 3.77602e-05 5.16383e-05 -3.91915e-05 -2.4095e-05 0.000129933 0.000140867 5.16383e-05 6.46123e-05 0.000140867 0.00015114 6.46123e-05 7.68217e-05 5.16383e-05 6.46123e-05 -2.4095e-05 -9.72891e-06 6.46123e-05 7.68217e-05 -9.72891e-06 3.96271e-06 -5.49462e-05 -3.91915e-05 -0.000127089 -0.000111234 -3.91915e-05 -2.4095e-05 -0.000111234 -9.56093e-05 -0.000127089 -0.000111234 -0.000192853 -0.000177372 -0.000111234 -9.56093e-05 -0.000177372 -0.000161687 -2.4095e-05 -9.72891e-06 -9.56093e-05 -8.04102e-05 -9.72891e-06 3.96271e-06 -8.04102e-05 -6.56672e-05 -9.56093e-05 -8.04102e-05 -0.000161687 -0.000146072 -8.04102e-05 -6.56672e-05 -0.000146072 -0.000130626 0.00015114 0.000160874 7.68217e-05 8.83993e-05 0.000160874 0.000170092 8.83993e-05 9.94226e-05 7.68217e-05 8.83993e-05 3.96271e-06 1.70797e-05 8.83993e-05 9.94226e-05 1.70797e-05 2.97262e-05 0.000170092 0.000178634 9.94226e-05 0.000109855 0.000178634 0.000186029 0.000109855 0.000119512 9.94226e-05 0.000109855 2.97262e-05 4.19781e-05 0.000109855 0.000119512 4.19781e-05 5.38952e-05 3.96271e-06 1.70797e-05 -6.56672e-05 -5.13238e-05 1.70797e-05 2.97262e-05 -5.13238e-05 -3.72622e-05 -6.56672e-05 -5.13238e-05 -0.000130626 -0.000115329 -5.13238e-05 -3.72622e-05 -0.000115329 -0.000100054 2.97262e-05 4.19781e-05 -3.72622e-05 -2.33172e-05 4.19781e-05 5.38952e-05 -2.33172e-05 -9.24553e-06 -3.72622e-05 -2.33172e-05 -0.000100054 -8.45744e-05 -2.33172e-05 -9.24553e-06 -8.45744e-05 -6.85254e-05 -0.000203158 -0.000222383 -0.000255388 -0.000273606 -0.000222383 -0.000234552 -0.000273606 -0.000285659 -0.000255388 -0.000273606 -0.000302135 -0.000319481 -0.000273606 -0.000285659 -0.000319481 -0.000331316 -0.000234552 -0.000239594 -0.000285659 -0.00029145 -0.000239594 -0.00023819 -0.00029145 -0.000291427 -0.000285659 -0.00029145 -0.000331316 -0.000337543 -0.00029145 -0.000291427 -0.000337543 -0.000338476 -0.000302135 -0.000319481 -0.000342882 -0.000359494 -0.000319481 -0.000331316 -0.000359494 -0.000371075 -0.000342882 -0.000359494 -0.000377095 -0.000393112 -0.000359494 -0.000371075 -0.000393112 -0.000404448 -0.000331316 -0.000337543 -0.000371075 -0.000377539 -0.000337543 -0.000338476 -0.000377539 -0.000379116 -0.000371075 -0.000377539 -0.000404448 -0.000411024 -0.000377539 -0.000379116 -0.000411024 -0.00041302 -0.00023819 -0.000231482 -0.000291427 -0.000286394 -0.000231482 -0.000220849 -0.000286394 -0.000277403 -0.000291427 -0.000286394 -0.000338476 -0.000334702 -0.000286394 -0.000277403 -0.000334702 -0.000327037 -0.000220849 -0.000207611 -0.000277403 -0.000265549 -0.000207611 -0.000192853 -0.000265549 -0.000251798 -0.000277403 -0.000265549 -0.000327037 -0.000316386 -0.000265549 -0.000251798 -0.000316386 -0.000303591 -0.000338476 -0.000334702 -0.000379116 -0.000376256 -0.000334702 -0.000327037 -0.000376256 -0.000369608 -0.000379116 -0.000376256 -0.00041302 -0.000410802 -0.000376256 -0.000369608 -0.000410802 -0.0004049 -0.000327037 -0.000316386 -0.000369608 -0