# vtk DataFile Version 3.0
#This file was generated by the deal.II library on 2022/11/17 at 0:49:44
ASCII
DATASET UNSTRUCTURED_GRID

POINTS 10192 double
0.4375 0.75 0
0.46875 0.75 0
0.4375 0.78125 0
0.46875 0.78125 0
0.46875 0.75 0
0.5 0.75 0
0.46875 0.78125 0
0.5 0.78125 0
0.4375 0.78125 0
0.46875 0.78125 0
0.4375 0.8125 0
0.46875 0.8125 0
0.46875 0.78125 0
0.5 0.78125 0
0.46875 0.8125 0
0.5 0.8125 0
0.4375 0.8125 0
0.46875 0.8125 0
0.4375 0.84375 0
0.46875 0.84375 0
0.46875 0.8125 0
0.5 0.8125 0
0.46875 0.84375 0
0.5 0.84375 0
0.4375 0.84375 0
0.46875 0.84375 0
0.4375 0.875 0
0.46875 0.875 0
0.46875 0.84375 0
0.5 0.84375 0
0.46875 0.875 0
0.5 0.875 0
0.375 0.875 0
0.40625 0.875 0
0.375 0.90625 0
0.40625 0.90625 0
0.40625 0.875 0
0.4375 0.875 0
0.40625 0.90625 0
0.4375 0.90625 0
0.375 0.90625 0
0.40625 0.90625 0
0.375 0.9375 0
0.40625 0.9375 0
0.40625 0.90625 0
0.4375 0.90625 0
0.40625 0.9375 0
0.4375 0.9375 0
0.4375 0.875 0
0.46875 0.875 0
0.4375 0.90625 0
0.46875 0.90625 0
0.46875 0.875 0
0.5 0.875 0
0.46875 0.90625 0
0.5 0.90625 0
0.4375 0.90625 0
0.46875 0.90625 0
0.4375 0.9375 0
0.46875 0.9375 0
0.46875 0.90625 0
0.5 0.90625 0
0.46875 0.9375 0
0.5 0.9375 0
0.625 0.5 0
0.65625 0.5 0
0.625 0.53125 0
0.65625 0.53125 0
0.65625 0.5 0
0.6875 0.5 0
0.65625 0.53125 0
0.6875 0.53125 0
0.625 0.53125 0
0.65625 0.53125 0
0.625 0.5625 0
0.65625 0.5625 0
0.65625 0.53125 0
0.6875 0.53125 0
0.65625 0.5625 0
0.6875 0.5625 0
0.6875 0.5 0
0.71875 0.5 0
0.6875 0.53125 0
0.71875 0.53125 0
0.71875 0.5 0
0.75 0.5 0
0.71875 0.53125 0
0.75 0.53125 0
0.6875 0.53125 0
0.71875 0.53125 0
0.6875 0.5625 0
0.71875 0.5625 0
0.71875 0.53125 0
0.75 0.53125 0
0.71875 0.5625 0
0.75 0.5625 0
0.625 0.5625 0
0.65625 0.5625 0
0.625 0.59375 0
0.65625 0.59375 0
0.65625 0.5625 0
0.6875 0.5625 0
0.65625 0.59375 0
0.6875 0.59375 0
0.625 0.59375 0
0.65625 0.59375 0
0.625 0.625 0
0.65625 0.625 0
0.65625 0.59375 0
0.6875 0.59375 0
0.65625 0.625 0
0.6875 0.625 0
0.6875 0.5625 0
0.71875 0.5625 0
0.6875 0.59375 0
0.71875 0.59375 0
0.71875 0.5625 0
0.75 0.5625 0
0.71875 0.59375 0
0.75 0.59375 0
0.6875 0.59375 0
0.71875 0.59375 0
0.6875 0.625 0
0.71875 0.625 0
0.71875 0.59375 0
0.75 0.59375 0
0.71875 0.625 0
0.75 0.625 0
0.5625 0.625 0
0.59375 0.625 0
0.5625 0.65625 0
0.59375 0.65625 0
0.59375 0.625 0
0.625 0.625 0
0.59375 0.65625 0
0.625 0.65625 0
0.5625 0.65625 0
0.59375 0.65625 0
0.5625 0.6875 0
0.59375 0.6875 0
0.59375 0.65625 0
0.625 0.65625 0
0.59375 0.6875 0
0.625 0.6875 0
0.5 0.6875 0
0.53125 0.6875 0
0.5 0.71875 0
0.53125 0.71875 0
0.53125 0.6875 0
0.5625 0.6875 0
0.53125 0.71875 0
0.5625 0.71875 0
0.5 0.71875 0
0.53125 0.71875 0
0.5 0.75 0
0.53125 0.75 0
0.53125 0.71875 0
0.5625 0.71875 0
0.53125 0.75 0
0.5625 0.75 0
0.5625 0.6875 0
0.59375 0.6875 0
0.5625 0.71875 0
0.59375 0.71875 0
0.59375 0.6875 0
0.625 0.6875 0
0.59375 0.71875 0
0.625 0.71875 0
0.5625 0.71875 0
0.59375 0.71875 0
0.5625 0.75 0
0.59375 0.75 0
0.59375 0.71875 0
0.625 0.71875 0
0.59375 0.75 0
0.625 0.75 0
0.625 0.625 0
0.65625 0.625 0
0.625 0.65625 0
0.65625 0.65625 0
0.65625 0.625 0
0.6875 0.625 0
0.65625 0.65625 0
0.6875 0.65625 0
0.625 0.65625 0
0.65625 0.65625 0
0.625 0.6875 0
0.65625 0.6875 0
0.65625 0.65625 0
0.6875 0.65625 0
0.65625 0.6875 0
0.6875 0.6875 0
0.6875 0.625 0
0.71875 0.625 0
0.6875 0.65625 0
0.71875 0.65625 0
0.71875 0.625 0
0.75 0.625 0
0.71875 0.65625 0
0.75 0.65625 0
0.6875 0.65625 0
0.71875 0.65625 0
0.6875 0.6875 0
0.71875 0.6875 0
0.71875 0.65625 0
0.75 0.65625 0
0.71875 0.6875 0
0.75 0.6875 0
0.625 0.6875 0
0.65625 0.6875 0
0.625 0.71875 0
0.65625 0.71875 0
0.65625 0.6875 0
0.6875 0.6875 0
0.65625 0.71875 0
0.6875 0.71875 0
0.625 0.71875 0
0.65625 0.71875 0
0.625 0.75 0
0.65625 0.75 0
0.65625 0.71875 0
0.6875 0.71875 0
0.65625 0.75 0
0.6875 0.75 0
0.6875 0.6875 0
0.71875 0.6875 0
0.6875 0.71875 0
0.71875 0.71875 0
0.71875 0.6875 0
0.75 0.6875 0
0.71875 0.71875 0
0.75 0.71875 0
0.6875 0.71875 0
0.71875 0.71875 0
0.6875 0.75 0
0.71875 0.75 0
0.71875 0.71875 0
0.75 0.71875 0
0.71875 0.75 0
0.75 0.75 0
0.75 0.5 0
0.78125 0.5 0
0.75 0.53125 0
0.78125 0.53125 0
0.78125 0.5 0
0.8125 0.5 0
0.78125 0.53125 0
0.8125 0.53125 0
0.75 0.53125 0
0.78125 0.53125 0
0.75 0.5625 0
0.78125 0.5625 0
0.78125 0.53125 0
0.8125 0.53125 0
0.78125 0.5625 0
0.8125 0.5625 0
0.8125 0.5 0
0.84375 0.5 0
0.8125 0.53125 0
0.84375 0.53125 0
0.84375 0.5 0
0.875 0.5 0
0.84375 0.53125 0
0.875 0.53125 0
0.8125 0.53125 0
0.84375 0.53125 0
0.8125 0.5625 0
0.84375 0.5625 0
0.84375 0.53125 0
0.875 0.53125 0
0.84375 0.5625 0
0.875 0.5625 0
0.75 0.5625 0
0.78125 0.5625 0
0.75 0.59375 0
0.78125 0.59375 0
0.78125 0.5625 0
0.8125 0.5625 0
0.78125 0.59375 0
0.8125 0.59375 0
0.75 0.59375 0
0.78125 0.59375 0
0.75 0.625 0
0.78125 0.625 0
0.78125 0.59375 0
0.8125 0.59375 0
0.78125 0.625 0
0.8125 0.625 0
0.8125 0.5625 0
0.84375 0.5625 0
0.8125 0.59375 0
0.84375 0.59375 0
0.84375 0.5625 0
0.875 0.5625 0
0.84375 0.59375 0
0.875 0.59375 0
0.8125 0.59375 0
0.84375 0.59375 0
0.8125 0.625 0
0.84375 0.625 0
0.84375 0.59375 0
0.875 0.59375 0
0.84375 0.625 0
0.875 0.625 0
0.875 0.5 0
0.90625 0.5 0
0.875 0.53125 0
0.90625 0.53125 0
0.90625 0.5 0
0.9375 0.5 0
0.90625 0.53125 0
0.9375 0.53125 0
0.875 0.53125 0
0.90625 0.53125 0
0.875 0.5625 0
0.90625 0.5625 0
0.90625 0.53125 0
0.9375 0.53125 0
0.90625 0.5625 0
0.9375 0.5625 0
0.9375 0.5 0
0.96875 0.5 0
0.9375 0.53125 0
0.96875 0.53125 0
0.96875 0.5 0
1 0.5 0
0.96875 0.53125 0
1 0.53125 0
0.9375 0.53125 0
0.96875 0.53125 0
0.9375 0.5625 0
0.96875 0.5625 0
0.96875 0.53125 0
1 0.53125 0
0.96875 0.5625 0
1 0.5625 0
0.875 0.5625 0
0.90625 0.5625 0
0.875 0.59375 0
0.90625 0.59375 0
0.90625 0.5625 0
0.9375 0.5625 0
0.90625 0.59375 0
0.9375 0.59375 0
0.875 0.59375 0
0.90625 0.59375 0
0.875 0.625 0
0.90625 0.625 0
0.90625 0.59375 0
0.9375 0.59375 0
0.90625 0.625 0
0.9375 0.625 0
0.9375 0.5625 0
0.96875 0.5625 0
0.9375 0.59375 0
0.96875 0.59375 0
0.96875 0.5625 0
1 0.5625 0
0.96875 0.59375 0
1 0.59375 0
0.9375 0.59375 0
0.96875 0.59375 0
0.9375 0.625 0
0.96875 0.625 0
0.96875 0.59375 0
1 0.59375 0
0.96875 0.625 0
1 0.625 0
0.75 0.625 0
0.78125 0.625 0
0.75 0.65625 0
0.78125 0.65625 0
0.78125 0.625 0
0.8125 0.625 0
0.78125 0.65625 0
0.8125 0.65625 0
0.75 0.65625 0
0.78125 0.65625 0
0.75 0.6875 0
0.78125 0.6875 0
0.78125 0.65625 0
0.8125 0.65625 0
0.78125 0.6875 0
0.8125 0.6875 0
0.8125 0.625 0
0.84375 0.625 0
0.8125 0.65625 0
0.84375 0.65625 0
0.84375 0.625 0
0.875 0.625 0
0.84375 0.65625 0
0.875 0.65625 0
0.8125 0.65625 0
0.84375 0.65625 0
0.8125 0.6875 0
0.84375 0.6875 0
0.84375 0.65625 0
0.875 0.65625 0
0.84375 0.6875 0
0.875 0.6875 0
0.75 0.6875 0
0.78125 0.6875 0
0.75 0.71875 0
0.78125 0.71875 0
0.78125 0.6875 0
0.8125 0.6875 0
0.78125 0.71875 0
0.8125 0.71875 0
0.75 0.71875 0
0.78125 0.71875 0
0.75 0.75 0
0.78125 0.75 0
0.78125 0.71875 0
0.8125 0.71875 0
0.78125 0.75 0
0.8125 0.75 0
0.8125 0.6875 0
0.84375 0.6875 0
0.8125 0.71875 0
0.84375 0.71875 0
0.84375 0.6875 0
0.875 0.6875 0
0.84375 0.71875 0
0.875 0.71875 0
0.8125 0.71875 0
0.84375 0.71875 0
0.8125 0.75 0
0.84375 0.75 0
0.84375 0.71875 0
0.875 0.71875 0
0.84375 0.75 0
0.875 0.75 0
0.875 0.625 0
0.90625 0.625 0
0.875 0.65625 0
0.90625 0.65625 0
0.90625 0.625 0
0.9375 0.625 0
0.90625 0.65625 0
0.9375 0.65625 0
0.875 0.65625 0
0.90625 0.65625 0
0.875 0.6875 0
0.90625 0.6875 0
0.90625 0.65625 0
0.9375 0.65625 0
0.90625 0.6875 0
0.9375 0.6875 0
0.9375 0.625 0
0.96875 0.625 0
0.9375 0.65625 0
0.96875 0.65625 0
0.96875 0.625 0
1 0.625 0
0.96875 0.65625 0
1 0.65625 0
0.9375 0.65625 0
0.96875 0.65625 0
0.9375 0.6875 0
0.96875 0.6875 0
0.96875 0.65625 0
1 0.65625 0
0.96875 0.6875 0
1 0.6875 0
0.875 0.6875 0
0.90625 0.6875 0
0.875 0.71875 0
0.90625 0.71875 0
0.90625 0.6875 0
0.9375 0.6875 0
0.90625 0.71875 0
0.9375 0.71875 0
0.875 0.71875 0
0.90625 0.71875 0
0.875 0.75 0
0.90625 0.75 0
0.90625 0.71875 0
0.9375 0.71875 0
0.90625 0.75 0
0.9375 0.75 0
0.9375 0.6875 0
0.96875 0.6875 0
0.9375 0.71875 0
0.96875 0.71875 0
0.96875 0.6875 0
1 0.6875 0
0.96875 0.71875 0
1 0.71875 0
0.9375 0.71875 0
0.96875 0.71875 0
0.9375 0.75 0
0.96875 0.75 0
0.96875 0.71875 0
1 0.71875 0
0.96875 0.75 0
1 0.75 0
0.5 0.75 0
0.53125 0.75 0
0.5 0.78125 0
0.53125 0.78125 0
0.53125 0.75 0
0.5625 0.75 0
0.53125 0.78125 0
0.5625 0.78125 0
0.5 0.78125 0
0.53125 0.78125 0
0.5 0.8125 0
0.53125 0.8125 0
0.53125 0.78125 0
0.5625 0.78125 0
0.53125 0.8125 0
0.5625 0.8125 0
0.5625 0.75 0
0.59375 0.75 0
0.5625 0.78125 0
0.59375 0.78125 0
0.59375 0.75 0
0.625 0.75 0
0.59375 0.78125 0
0.625 0.78125 0
0.5625 0.78125 0
0.59375 0.78125 0
0.5625 0.8125 0
0.59375 0.8125 0
0.59375 0.78125 0
0.625 0.78125 0
0.59375 0.8125 0
0.625 0.8125 0
0.5 0.8125 0
0.53125 0.8125 0
0.5 0.84375 0
0.53125 0.84375 0
0.53125 0.8125 0
0.5625 0.8125 0
0.53125 0.84375 0
0.5625 0.84375 0
0.5 0.84375 0
0.53125 0.84375 0
0.5 0.875 0
0.53125 0.875 0
0.53125 0.84375 0
0.5625 0.84375 0
0.53125 0.875 0
0.5625 0.875 0
0.5625 0.8125 0
0.59375 0.8125 0
0.5625 0.84375 0
0.59375 0.84375 0
0.59375 0.8125 0
0.625 0.8125 0
0.59375 0.84375 0
0.625 0.84375 0
0.5625 0.84375 0
0.59375 0.84375 0
0.5625 0.875 0
0.59375 0.875 0
0.59375 0.84375 0
0.625 0.84375 0
0.59375 0.875 0
0.625 0.875 0
0.625 0.75 0
0.65625 0.75 0
0.625 0.78125 0
0.65625 0.78125 0
0.65625 0.75 0
0.6875 0.75 0
0.65625 0.78125 0
0.6875 0.78125 0
0.625 0.78125 0
0.65625 0.78125 0
0.625 0.8125 0
0.65625 0.8125 0
0.65625 0.78125 0
0.6875 0.78125 0
0.65625 0.8125 0
0.6875 0.8125 0
0.6875 0.75 0
0.71875 0.75 0
0.6875 0.78125 0
0.71875 0.78125 0
0.71875 0.75 0
0.75 0.75 0
0.71875 0.78125 0
0.75 0.78125 0
0.6875 0.78125 0
0.71875 0.78125 0
0.6875 0.8125 0
0.71875 0.8125 0
0.71875 0.78125 0
0.75 0.78125 0
0.71875 0.8125 0
0.75 0.8125 0
0.625 0.8125 0
0.65625 0.8125 0
0.625 0.84375 0
0.65625 0.84375 0
0.65625 0.8125 0
0.6875 0.8125 0
0.65625 0.84375 0
0.6875 0.84375 0
0.625 0.84375 0
0.65625 0.84375 0
0.625 0.875 0
0.65625 0.875 0
0.65625 0.84375 0
0.6875 0.84375 0
0.65625 0.875 0
0.6875 0.875 0
0.6875 0.8125 0
0.71875 0.8125 0
0.6875 0.84375 0
[...]
POINT_DATA 10192
SCALARS x_dis double 1
LOOKUP_TABLE default
-0.000251984 -0.000259473 -0.000346774 -0.000357919 -0.000259473 -0.000262356 -0.000357919 -0.000363587 -0.000346774 -0.000357919 -0.000428392 -0.000443188 -0.000357919 -0.000363587 -0.000443188 -0.000452059 -0.000428392 -0.000443188 -0.000497408 -0.00051537 -0.000443188 -0.000452059 -0.00051537 -0.000527298 -0.000497408 -0.00051537 -0.000554167 -0.000574637 -0.00051537 -0.000527298 -0.000574637 -0.000589248 -0.00049021 -0.000526261 -0.000532014 -0.000568957 -0.000526261 -0.000554167 -0.000568957 -0.000598388 -0.000532014 -0.000568957 -0.000561861 -0.000599839 -0.000568957 -0.000598388 -0.000599839 -0.000630533 -0.000554167 -0.000574637 -0.000598388 -0.000621046 -0.000574637 -0.000589248 -0.000621046 -0.000637993 -0.000598388 -0.000621046 -0.000630533 -0.000654691 -0.000621046 -0.000637993 -0.000654691 -0.000673282 0.000650161 0.000602988 0.000564374 0.00053172 0.000602988 0.000570405 0.00053172 0.000506062 0.000564374 0.00053172 0.000454377 0.000435848 0.00053172 0.000506062 0.000435848 0.000418416 0.000570405 0.000549373 0.000506062 0.000487183 0.000549373 0.000537642 0.000487183 0.000474362 0.000506062 0.000487183 0.000418416 0.000403669 0.000487183 0.000474362 0.000403669 0.000392089 0.000454377 0.000435848 0.000338139 0.000326863 0.000435848 0.000418416 0.000326863 0.000315685 0.000338139 0.000326863 0.000218524 0.000211281 0.000326863 0.000315685 0.000211281 0.000204077 0.000418416 0.000403669 0.000315685 0.000305054 0.000403669 0.000392089 0.000305054 0.000295672 0.000315685 0.000305054 0.000204077 0.000196701 0.000305054 0.000295672 0.000196701 0.000189592 0.000237566 0.000226613 0.000106537 0.000101217 0.000226613 0.000218524 0.000101217 9.66456e-05 0.000106537 0.000101217 -2.23781e-05 -2.36824e-05 0.000101217 9.66456e-05 -2.36824e-05 -2.52423e-05 -2.19099e-05 -2.1624e-05 -0.000148242 -0.000147116 -2.1624e-05 -2.23781e-05 -0.000147116 -0.000145722 -0.000148242 -0.000147116 -0.000262356 -0.000262267 -0.000147116 -0.000145722 -0.000262267 -0.00026085 -2.23781e-05 -2.36824e-05 -0.000145722 -0.000144774 -2.36824e-05 -2.52423e-05 -0.000144774 -0.000144417 -0.000145722 -0.000144774 -0.00026085 -0.000259243 -0.000144774 -0.000144417 -0.000259243 -0.000258022 0.000218524 0.000211281 9.66456e-05 9.23998e-05 0.000211281 0.000204077 9.23998e-05 8.78566e-05 9.66456e-05 9.23998e-05 -2.52423e-05 -2.72071e-05 9.23998e-05 8.78566e-05 -2.72071e-05 -2.97578e-05 0.000204077 0.000196701 8.78566e-05 8.28893e-05 0.000196701 0.000189592 8.28893e-05 7.77773e-05 8.78566e-05 8.28893e-05 -2.97578e-05 -3.28995e-05 8.28893e-05 7.77773e-05 -3.28995e-05 -3.63457e-05 -2.52423e-05 -2.72071e-05 -0.000144417 -0.000144756 -2.72071e-05 -2.97578e-05 -0.000144756 -0.000145856 -0.000144417 -0.000144756 -0.000258022 -0.000257462 -0.000144756 -0.000145856 -0.000257462 -0.000257628 -2.97578e-05 -3.28995e-05 -0.000145856 -0.000147604 -3.28995e-05 -3.63457e-05 -0.000147604 -0.000149694 -0.000145856 -0.000147604 -0.000257628 -0.000258379 -0.000147604 -0.000149694 -0.000258379 -0.00025941 0.000537642 0.000533172 0.000474362 0.000466707 0.000533172 0.000534116 0.000466707 0.000463266 0.000474362 0.000466707 0.000392089 0.000383732 0.000466707 0.000463266 0.000383732 0.000378407 0.000534116 0.000538832 0.000463266 0.000463063 0.000538832 0.000545835 0.000463063 0.00046512 0.000463266 0.000463063 0.000378407 0.000375761 0.000463063 0.00046512 0.000375761 0.000375327 0.000392089 0.000383732 0.000295672 0.00028805 0.000383732 0.000378407 0.00028805 0.000282494 0.000295672 0.00028805 0.000189592 0.000183345 0.00028805 0.000282494 0.000183345 0.00017849 0.000378407 0.000375761 0.000282494 0.000279112 0.000375761 0.000375327 0.000279112 0.000277839 0.000282494 0.000279112 0.00017849 0.00017541 0.000279112 0.000277839 0.00017541 0.000174307 0.000545835 0.00055369 0.00046512 0.000468455 0.00055369 0.000560919 0.000468455 0.000472086 0.00046512 0.000468455 0.000375327 0.000376548 0.000468455 0.000472086 0.000376548 0.000378784 0.000560919 0.00056602 0.000472086 0.000475025 0.00056602 0.000567957 0.000475025 0.000476312 0.000472086 0.000475025 0.000378784 0.000381242 0.000475025 0.000476312 0.000381242 0.000382703 0.000375327 0.000376548 0.000277839 0.000278447 0.000376548 0.000378784 0.000278447 0.000280525 0.000277839 0.000278447 0.000174307 0.000175185 0.000278447 0.000280525 0.000175185 0.000177799 0.000378784 0.000381242 0.000280525 0.000283361 0.000381242 0.000382703 0.000283361 0.000285654 0.000280525 0.000283361 0.000177799 0.000181544 0.000283361 0.000285654 0.000181544 0.000185247 0.000189592 0.000183345 7.77773e-05 7.30621e-05 0.000183345 0.00017849 7.30621e-05 6.93329e-05 7.77773e-05 7.30621e-05 -3.63457e-05 -3.96032e-05 7.30621e-05 6.93329e-05 -3.96032e-05 -4.20884e-05 0.00017849 0.00017541 6.93329e-05 6.70998e-05 0.00017541 0.000174307 6.70998e-05 6.67213e-05 6.93329e-05 6.70998e-05 -4.20884e-05 -4.32486e-05 6.70998e-05 6.67213e-05 -4.32486e-05 -4.26445e-05 -3.63457e-05 -3.96032e-05 -0.000149694 -0.000151661 -3.96032e-05 -4.20884e-05 -0.000151661 -0.000152948 -0.000149694 -0.000151661 -0.00025941 -0.000260293 -0.000151661 -0.000152948 -0.000260293 -0.00026051 -4.20884e-05 -4.32486e-05 -0.000152948 -0.000152998 -4.32486e-05 -4.26445e-05 -0.000152998 -0.000151332 -0.000152948 -0.000152998 -0.00026051 -0.000259517 -0.000152998 -0.000151332 -0.000259517 -0.000256813 0.000174307 0.000175185 6.67213e-05 6.83558e-05 0.000175185 0.000177799 6.83558e-05 7.19054e-05 6.67213e-05 6.83558e-05 -4.26445e-05 -4.00079e-05 6.83558e-05 7.19054e-05 -4.00079e-05 -3.52944e-05 0.000177799 0.000181544 7.19054e-05 7.69272e-05 0.000181544 0.000185247 7.69272e-05 8.2512e-05 7.19054e-05 7.69272e-05 -3.52944e-05 -2.87418e-05 7.69272e-05 8.2512e-05 -2.87418e-05 -2.09278e-05 -4.26445e-05 -4.00079e-05 -0.000151332 -0.000147596 -4.00079e-05 -3.52944e-05 -0.000147596 -0.000141603 -0.000151332 -0.000147596 -0.000256813 -0.000251972 -0.000147596 -0.000141603 -0.000251972 -0.000244667 -3.52944e-05 -2.87418e-05 -0.000141603 -0.000133365 -2.87418e-05 -2.09278e-05 -0.000133365 -0.000123103 -0.000141603 -0.000133365 -0.000244667 -0.000234676 -0.000133365 -0.000123103 -0.000234676 -0.000221873 -0.000262356 -0.000262267 -0.000363587 -0.000365719 -0.000262267 -0.00026085 -0.000365719 -0.000365658 -0.000363587 -0.000365719 -0.000452059 -0.000456756 -0.000365719 -0.000365658 -0.000456756 -0.000458668 -0.00026085 -0.000259243 -0.000365658 -0.000364621 -0.000259243 -0.000258022 -0.000364621 -0.000363478 -0.000365658 -0.000364621 -0.000458668 -0.000458961 -0.000364621 -0.000363478 -0.000458961 -0.000458592 -0.000452059 -0.000456756 -0.000527298 -0.000534696 -0.000456756 -0.000458668 -0.000534696 -0.000538838 -0.000527298 -0.000534696 -0.000589248 -0.000599261 -0.000534696 -0.000538838 -0.000599261 -0.000605613 -0.000458668 -0.000458961 -0.000538838 -0.000540817 -0.000458961 -0.000458592 -0.000540817 -0.000541661 -0.000538838 -0.000540817 -0.000605613 -0.000609322 -0.000540817 -0.000541661 -0.000609322 -0.000611454 -0.000258022 -0.000257462 -0.000363478 -0.0003627 -0.000257462 -0.000257628 -0.0003627 -0.000362436 -0.000363478 -0.0003627 -0.000458592 -0.000458176 -0.0003627 -0.000362436 -0.000458176 -0.00045793 -0.000257628 -0.000258379 -0.000362436 -0.000362571 -0.000258379 -0.00025941 -0.000362571 -0.000362835 -0.000362436 -0.000362571 -0.00045793 -0.000457792 -0.000362571 -0.000362835 -0.000457792 -0.000457548 -0.000458592 -0.000458176 -0.000541661 -0.000542025 -0.000458176 -0.00045793 -0.000542025 -0.000542153 -0.000541661 -0.000542025 -0.000611454 -0.000612903 -0.000542025 -0.000542153 -0.000612903 -0.000613528 -0.00045793 -0.000457792 -0.000542153 -0.000541975 -0.000457792 -0.000457548 -0.000541975 -0.00054141 -0.000542153 -0.000541975 -0.000613528 -0.000613397 -0.000541975 -0.00054141 -0.000613397 -0.000612546 -0.000589248 -0.000599261 -0.000637993 -0.000650503 -0.000599261 -0.000605613 -0.000650503 -0.000659183 -0.000637993 -0.000650503 -0.000673282 -0.000687641 -0.000650503 -0.000659183 -0.000687641 -0.000699291 -0.000605613 -0.000609322 -0.000659183 -0.000664025 -0.000609322 -0.000611454 -0.000664025 -0.000667432 -0.000659183 -0.000664025 -0.000699291 -0.0007062 -0.000664025 -0.000667432 -0.0007062 -0.000708742 -0.000611454 -0.000612903 -0.000667432 -0.000669771 -0.000612903 -0.000613528 -0.000669771 -0.000670951 -0.000667432 -0.000669771 -0.000708742 -0.000713328 -0.000669771 -0.000670951 -0.000713328 -0.000711986 -0.000613528 -0.000613397 -0.000670951 -0.000670374 -0.000613397 -0.000612546 -0.000670374 -0.00066933 -0.000670951 -0.000670374 -0.000711986 -0.000711347 -0.000670374 -0.00066933 -0.000711347 -0.000710455 -0.000708742 -0.000713328 -0.000739069 -0.00073396 -0.000713328 -0.000711986 -0.00073396 -0.000734466 -0.000739069 -0.00073396 -0.000717075 -0.000732151 -0.00073396 -0.000734466 -0.000732151 -0.000740617 -0.000711986 -0.000711347 -0.000734466 -0.000735419 -0.000711347 -0.000710455 -0.000735419 -0.000735172 -0.000734466 -0.000735419 -0.000740617 -0.000743127 -0.000735419 -0.000735172 -0.000743127 -0.000743391 -0.00025941 -0.000260293 -0.000362835 -0.000362856 -0.000260293 -0.00026051 -0.000362856 -0.000362167 -0.000362835 -0.000362856 -0.000457548 -0.000456913 -0.000362856 -0.000362167 -0.000456913 -0.00045549 -0.00026051 -0.000259517 -0.000362167 -0.000360249 -0.000259517 -0.000256813 -0.000360249 -0.000356592 -0.000362167 -0.000360249 -0.00045549 -0.000452792 -0.000360249 -0.000356592 -0.000452792 -0.000448296 -0.000457548 -0.000456913 -0.00054141 -0.000540282 -0.000456913 -0.00045549 -0.000540282 -0.000538287 -0.00054141 -0.000540282 -0.000612546 -0.000611061 -0.000540282 -0.000538287 -0.000611061 -0.000608648 -0.00045549 -0.000452792 -0.000538287 -0.000534958 -0.000452792 -0.000448296 -0.000534958 -0.00052976 -0.000538287 -0.000534958 -0.000608648 -0.00060484 -0.000534958 -0.00052976 -0.00060484 -0.000599083 -0.000256813 -0.000251972 -0.000356592 -0.0003507 -0.000251972 -0.000244667 -0.0003507 -0.000342112 -0.000356592 -0.0003507 -0.000448296 -0.000441449 -0.0003507 -0.000342112 -0.000441449 -0.000431661 -0.000244667 -0.000234676 -0.000342112 -0.000330386 -0.000234676 -0.000221873 -0.000330386 -0.000315068 -0.000342112 -0.000330386 -0.000431661 -0.000418288 -0.000330386 -0.000315068 -0.000418288 -0.000400588 -0.000448296 -0.000441449 -0.00052976 -0.00052208 -0.000441449 -0.000431661 -0.00052208 -0.000511216 -0.00052976 -0.00052208 -0.000599083 -0.000590711 -0.00052208 -0.000511216 -0.000590711 -0.000578927 -0.000431661 -0.000418288 -0.000511216 -0.000496347 -0.000418288 -0.000400588 -0.000496347 -0.000476489 -0.000511216 -0.000496347 -0.000578927 -0.000562768 -0.000496347 -0.000476489 -0.000562768 -0.000541047 -0.000612546 -0.000611061 -0.00066933 -0.000667648 -0.000611061 -0.000608648 -0.000667648 -0.00066498 -0.00066933 -0.000667648 -0.000710455 -0.000708808 -0.000667648 -0.00066498 -0.000708808 -0.000706051 -0.000608648 -0.00060484 -0.00066498 -0.000660845 -0.00060484 -0.000599083 -0.000660845 -0.000654673 -0.00066498 -0.000660845 -0.000706051 -0.000701727 -0.000660845 -0.000654673 -0.000701727 -0.000695279 -0.000710455 -0.000708808 -0.000735172 -0.000733749 -0.000708808 -0.000706051 -0.000733749 -0.000731009 -0.000735172 -0.000733749 -0.000743391 -0.000742101 -0.000733749 -0.000731009 -0.000742101 -0.000739377 -0.000706051 -0.000701727 -0.000731009 -0.000726601 -0.000701727 -0.000695279 -0.000726601 -0.000720001 -0.000731009 -0.000726601 -0.000739377 -0.000734948 -0.000726601 -0.000720001 -0.000734948 -0.000728301 -0.000599083 -0.000590711 -0.000654673 -0.000645763 -0.000590711 -0.000578927 -0.000645763 -0.000633242 -0.000654673 -0.000645763 -0.000695279 -0.000685986 -0.000645763 -0.000633242 -0.000685986 -0.000672927 -0.000578927 -0.000562768 -0.000633242 -0.000616035 -0.000562768 -0.000541047 -0.000616035 -0.000592808 -0.000633242 -0.000616035 -0.000672927 -0.000654951 -0.000616035 -0.000592808 -0.000654951 -0.000630616 -0.000695279 -0.000685986 -0.000720001 -0.000710481 -0.000685986 -0.000672927 -0.000710481 -0.000697095 -0.000720001 -0.000710481 -0.000728301 -0.000718706 -0.000710481 -0.000697095 -0.000718706 -0.000705211 -0.000672927 -0.000654951 -0.000697095 -0.000678648 -0.000654951 -0.000630616 -0.000678648 -0.000653636 -0.000697095 -0.000678648 -0.000705211 -0.000686606 -0.000678648 -0.000653636 -0.000686606 -0.000661366 -0.000492516 -0.000551381 -0.000487603 -0.000546288 -0.000551381 -0.000603506 -0.000546288 -0.00059816 -0.000487603 -0.000546288 -0.000472897 -0.000531034 -0.000546288 -0.00059816 -0.000531034 -0.00058214 -0.000603506 -0.000649023 -0.00059816 -0.000643376 -0.000649023 -0.000688286 -0.000643376 -0.000682316 -0.00059816 -0.000643376 -0.00058214 -0.000626451 -0.000643376 -0.000682316 -0.000626451 -0.000664426 -0.000472897 -0.000531034 -0.000448492 -0.00050569 -0.000531034 -0.00058214 -0.00050569 -0.000555504 -0.000448492 -0.00050569 -0.000414531 -0.000470361 -0.00050569 -0.000555504 -0.000470361 -0.000518327 -0.00058214 -0.000626451 -0.000555504 -0.000598299 -0.000626451 -0.000664426 -0.000598299 -0.000634674 -0.000555504 -0.000598299 -0.000518327 -0.000559 -0.000598299 -0.000634674 -0.000559 -0.000593157 -0.000414531 -0.000470361 -0.000371201 -0.000425134 -0.000470361 -0.000518327 -0.000425134 -0.000470702 -0.000371201 -0.000425134 -0.000318388 -0.000370205 -0.000425134 -0.000470702 -0.000370205 -0.000412839 -0.000518327 -0.000559 -0.000470702 -0.000508666 -0.000559 -0.000593157 -0.000508666 -0.000539996 -0.000470702 -0.000508666 -0.000412839 -0.000447316 -0.000508666 -0.000539996 -0.000447316 -0.000475308 -0.000412839 -0.000447316 -0.000344082 -0.000374812 -0.000447316 -0.000475308 -0.000374812 -0.00039924 -0.000344082 -0.000374812 -0.000264835 -0.000291246 -0.000374812 -0.00039924 -0.000291246 -0.000312001 -0.000264835 -0.000291246 -0.000174173 -0.000196289 -0.000291246 -0.000312001 -0.000196289 -0.000213787 -0.000174173 -0.000196289 -7.07885e-05 -8.94043e-05 -0.000196289 -0.000213787 -8.94043e-05 -0.000104789 -0.000688286 -0.000721798 -0.000682316 -0.000715511 -0.000721798 -0.000750165 -0.000715511 -0.000743586 -0.000682316 -0.000715511 -0.000664426 -0.000696674 -0.000715511 -0.000743586 -0.000696674 -0.000723886 -0.000750165 -0.000774029 -0.000743586 -0.0007672 -0.000774029 -0.000793992 -0.0007672 -0.000786963 -0.000743586 -0.0007672 -0.000723886 -0.000746764 -0.0007672 -0.000786963 -0.000746764 -0.00076594 -0.000664426 -0.000696674 -0.000634674 -0.000665367 -0.000696674 -0.000723886 -0.000665367 -0.000691176 -0.000634674 -0.000665367 -0.000593157 -0.000621724 -0.000665367 -0.000691176 -0.000621724 -0.000645654 -0.000723886 -0.000746764 -0.000691176 -0.000712874 -0.000746764 -0.00076594 -0.000712874 -0.000731126 -0.000691176 -0.000712874 -0.000645654 -0.000665807 -0.000712874 -0.000731126 -0.000665807 -0.00068288 -0.000793992 -0.000810561 -0.000786963 -0.000803383 -0.000810561 -0.000824127 -0.000803383 -0.000816847 -0.000786963 -0.000803383 -0.00076594 -0.000781928 -0.000803383 -0.000816847 -0.000781928 -0.000795105 -0.000824127 -0.000834955 -0.000816847 -0.000827618 -0.000834955 -0.000843188 -0.000827618 -0.000835829 -0.000816847 -0.000827618 -0.000795105 -0.000805716 -0.000827618 -0.000835829 -0.000805716 -0.000813873 -0.00076594 -0.000781928 -0.000731126 -0.000746446 -0.000781928 -0.000795105 -0.000746446 -0.000759196 -0.000731126 -0.000746446 -0.00068288 -0.000697379 -0.000746446 -0.000759196 -0.000697379 -0.00070963 -0.000795105 -0.000805716 -0.000759196 -0.000769584 -0.000805716 -0.000813873 -0.000769584 -0.000777683 -0.000759196 -0.000769584 -0.00070963 -0.000719793 -0.000769584 -0.000777683 -0.000719793 -0.000727878 -0.000593157 -0.000621724 -0.000539996 -0.000565941 -0.000621724 -0.000645654 -0.000565941 -0.000587627 -0.000539996 -0.000565941 -0.000475308 -0.000498295 -0.000565941 -0.000587627 -0.000498295 -0.00051754 -0.000645654 -0.000665807 -0.000587627 -0.000605992 -0.000665807 -0.00068288 -0.000605992 -0.000621751 -0.000587627 -0.000605992 -0.00051754 -0.000534045 -0.000605992 -0.000621751 -0.000534045 -0.000548517 -0.000475308 -0.000498295 -0.00039924 -0.000419164 -0.000498295 -0.00051754 -0.000419164 -0.000436013 -0.00039924 -0.000419164 -0.000312001 -0.000329062 -0.000419164 -0.000436013 -0.000329062 -0.000343879 -0.00051754 -0.000534045 -0.000436013 -0.000450815 -0.000534045 -0.000548517 -0.000450815 -0.000464231 -0.000436013 -0.000450815 -0.000343879 -0.000357426 -0.000450815 -0.000464231 -0.000357426 -0.000370252 -0.00068288 -0.000697379 -0.000621751 -0.000635386 -0.000697379 -0.00070963 -0.000635386 -0.000647166 -0.000621751 -0.000635386 -0.000548517 -0.000561386 -0.000635386 -0.000647166 -0.000561386 -0.000572836 -0.00070963 -0.000719793 -0.000647166 -0.000657176 -0.000719793 -0.000727878 -0.000657176 -0.000665349 -0.000647166 -0.000657176 -0.000572836 -0.00058285 -0.000657176 -0.000665349 -0.00058285 -0.000591269 -0.000548517 -0.000561386 -0.000464231 -0.000476594 -0.000561386 -0.000572836 -0.000476594 -0.000487971 -0.000464231 -0.000476594 -0.000370252 -0.000382542 -0.000476594 -0.000487971 -0.000382542 -0.000394221 -0.000572836 -0.00058285 -0.000487971 -0.00049823 -0.00058285 -0.000591269 -0.00049823 -0.000507103 -0.000487971 -0.00049823 -0.000394221 -0.000405031 -0.00049823 -0.000507103 -0.000405031 -0.000414599 -0.000843188 -0.000848841 -0.000835829 -0.00084149 -0.000848841 -0.000851815 -0.00084149 -0.000844491 -0.000835829 -0.00084149 -0.000813873 -0.00081956 -0.00084149 -0.000844491 -0.00081956 -0.000822648 -0.000851815 -0.00085189 -0.000844491 -0.000844608 -0.00085189 -0.000848702 -0.000844608 -0.000841479 -0.000844491 -0.000844608 -0.000822648 -0.000822897 -0.000844608 -0.000841479 -0.000822897 -0.000819945 -0.000813873 -0.00081956 -0.000777683 -0.000783437 -0.00081956 -0.000822648 -0.000783437 -0.000786685 -0.000777683 -0.000783437 -0.000727878 -0.000733775 -0.000783437 -0.000786685 -0.000733775 -0.000737278 -0.000822648 -0.000822897 -0.000786685 -0.000787166 -0.000822897 -0.000819945 -0.000787166 -0.000784513 -0.000786685 -0.000787166 -0.000737278 -0.0007381 -0.000787166 -0.000784513 -0.0007381 -0.000735871 -0.000848702 -0.000841747 -0.000841479 -0.000834601 -0.000841747 -0.000830347 -0.000834601 -0.000823303 -0.000841479 -0.000834601 -0.000819945 -0.000813298 -0.000834601 -0.000823303 -0.000813298 -0.000802305 -0.000830347 -0.000813623 -0.000823303 -0.000806718 -0.000813623 -0.000790461 -0.000806718 -0.000783746 -0.000823303 -0.000806718 -0.000802305 -0.000786134 -0.000806718 -0.000783746 -0.000786134 -0.000763728 -0.000819945 -0.000813298 -0.000784513 -0.000778248 -0.000813298 -0.000802305 -0.000778248 -0.000767757 -0.000784513 -0.000778248 -0.000735871 -0.000730135 -0.000778248 -0.000767757 -0.000730135 -0.000720328 -0.000802305 -0.000786134 -0.000767757 -0.000752263 -0.000786134 -0.000763728 -0.000752263 -0.000730786 -0.000767757 -0.000752263 -0.000720328 -0.000705757 -0.000752263 -0.000730786 -0.000705757 -0.000685549 -0.000727878 -0.000733775 -0.000665349 -0.000671503 -0.000733775 -0.000737278 -0.000671503 -0.00067538 -0.000665349 -0.000671503 -0.000591269 -0.00059783 -0.000671503 -0.00067538 -0.00059783 -0.000602219 -0.000737278 -0.0007381 -0.00067538 -0.000676663 -0.0007381 -0.000735871 -0.000676663 -0.000674982 -0.00067538 -0.000676663 -0.000602219 -0.000604089 -0.000676663 -0.000674982 -0.000604089 -0.000603074 -0.000591269 -0.00059783 -0.000507103 -0.000514248 -0.00059783 -0.000602219 -0.000514248 -0.000519294 -0.000507103 -0.000514248 -0.000414599 -0.000422511 -0.000514248 -0.000519294 -0.000422511 -0.000428354 -0.000602219 -0.000604089 -0.000519294 -0.000521874 -0.000604089 -0.000603074 -0.000521874 -0.000521634 -0.000519294 -0.000521874 -0.000428354 -0.00043175 -0.000521874 -0.000521634 -0.00043175 -0.000432368 -0.000735871 -0.000730135 -0.000674982 -0.00066991 -0.000730135 -0.000720328 -0.00066991 -0.000660955 -0.000674982 -0.00066991 -0.000603074 -0.000598792 -0.00066991 -0.000660955 -0.000598792 -0.00059083 -0.000720328 -0.000705757