# vtk DataFile Version 3.0
#This file was generated by the deal.II library on 2022/11/17 at 0:07:21
ASCII
DATASET UNSTRUCTURED_GRID

POINTS 4096 double
0 0.5 0
0.03125 0.5 0
0 0.53125 0
0.03125 0.53125 0
0.03125 0.5 0
0.0625 0.5 0
0.03125 0.53125 0
0.0625 0.53125 0
0 0.53125 0
0.03125 0.53125 0
0 0.5625 0
0.03125 0.5625 0
0.03125 0.53125 0
0.0625 0.53125 0
0.03125 0.5625 0
0.0625 0.5625 0
0.0625 0.5 0
0.09375 0.5 0
0.0625 0.53125 0
0.09375 0.53125 0
0.09375 0.5 0
0.125 0.5 0
0.09375 0.53125 0
0.125 0.53125 0
0.0625 0.53125 0
0.09375 0.53125 0
0.0625 0.5625 0
0.09375 0.5625 0
0.09375 0.53125 0
0.125 0.53125 0
0.09375 0.5625 0
0.125 0.5625 0
0 0.5625 0
0.03125 0.5625 0
0 0.59375 0
0.03125 0.59375 0
0.03125 0.5625 0
0.0625 0.5625 0
0.03125 0.59375 0
0.0625 0.59375 0
0 0.59375 0
0.03125 0.59375 0
0 0.625 0
0.03125 0.625 0
0.03125 0.59375 0
0.0625 0.59375 0
0.03125 0.625 0
0.0625 0.625 0
0.0625 0.5625 0
0.09375 0.5625 0
0.0625 0.59375 0
0.09375 0.59375 0
0.09375 0.5625 0
0.125 0.5625 0
0.09375 0.59375 0
0.125 0.59375 0
0.0625 0.59375 0
0.09375 0.59375 0
0.0625 0.625 0
0.09375 0.625 0
0.09375 0.59375 0
0.125 0.59375 0
0.09375 0.625 0
0.125 0.625 0
0.125 0.5 0
0.15625 0.5 0
0.125 0.53125 0
0.15625 0.53125 0
0.15625 0.5 0
0.1875 0.5 0
0.15625 0.53125 0
0.1875 0.53125 0
0.125 0.53125 0
0.15625 0.53125 0
0.125 0.5625 0
0.15625 0.5625 0
0.15625 0.53125 0
0.1875 0.53125 0
0.15625 0.5625 0
0.1875 0.5625 0
0.1875 0.5 0
0.21875 0.5 0
0.1875 0.53125 0
0.21875 0.53125 0
0.21875 0.5 0
0.25 0.5 0
0.21875 0.53125 0
0.25 0.53125 0
0.1875 0.53125 0
0.21875 0.53125 0
0.1875 0.5625 0
0.21875 0.5625 0
0.21875 0.53125 0
0.25 0.53125 0
0.21875 0.5625 0
0.25 0.5625 0
0.125 0.5625 0
0.15625 0.5625 0
0.125 0.59375 0
0.15625 0.59375 0
0.15625 0.5625 0
0.1875 0.5625 0
0.15625 0.59375 0
0.1875 0.59375 0
0.125 0.59375 0
0.15625 0.59375 0
0.125 0.625 0
0.15625 0.625 0
0.15625 0.59375 0
0.1875 0.59375 0
0.15625 0.625 0
0.1875 0.625 0
0.1875 0.5625 0
0.21875 0.5625 0
0.1875 0.59375 0
0.21875 0.59375 0
0.21875 0.5625 0
0.25 0.5625 0
0.21875 0.59375 0
0.25 0.59375 0
0.1875 0.59375 0
0.21875 0.59375 0
0.1875 0.625 0
0.21875 0.625 0
0.21875 0.59375 0
0.25 0.59375 0
0.21875 0.625 0
0.25 0.625 0
0 0.625 0
0.03125 0.625 0
0 0.65625 0
0.03125 0.65625 0
0.03125 0.625 0
0.0625 0.625 0
0.03125 0.65625 0
0.0625 0.65625 0
0 0.65625 0
0.03125 0.65625 0
0 0.6875 0
0.03125 0.6875 0
0.03125 0.65625 0
0.0625 0.65625 0
0.03125 0.6875 0
0.0625 0.6875 0
0.0625 0.625 0
0.09375 0.625 0
0.0625 0.65625 0
0.09375 0.65625 0
0.09375 0.625 0
0.125 0.625 0
0.09375 0.65625 0
0.125 0.65625 0
0.0625 0.65625 0
0.09375 0.65625 0
0.0625 0.6875 0
0.09375 0.6875 0
0.09375 0.65625 0
0.125 0.65625 0
0.09375 0.6875 0
0.125 0.6875 0
0 0.6875 0
0.03125 0.6875 0
0 0.71875 0
0.03125 0.71875 0
0.03125 0.6875 0
0.0625 0.6875 0
0.03125 0.71875 0
0.0625 0.71875 0
0 0.71875 0
0.03125 0.71875 0
0 0.75 0
0.03125 0.75 0
0.03125 0.71875 0
0.0625 0.71875 0
0.03125 0.75 0
0.0625 0.75 0
0.0625 0.6875 0
0.09375 0.6875 0
0.0625 0.71875 0
0.09375 0.71875 0
0.09375 0.6875 0
0.125 0.6875 0
0.09375 0.71875 0
0.125 0.71875 0
0.0625 0.71875 0
0.09375 0.71875 0
0.0625 0.75 0
0.09375 0.75 0
0.09375 0.71875 0
0.125 0.71875 0
0.09375 0.75 0
0.125 0.75 0
0.125 0.625 0
0.15625 0.625 0
0.125 0.65625 0
0.15625 0.65625 0
0.15625 0.625 0
0.1875 0.625 0
0.15625 0.65625 0
0.1875 0.65625 0
0.125 0.65625 0
0.15625 0.65625 0
0.125 0.6875 0
0.15625 0.6875 0
0.15625 0.65625 0
0.1875 0.65625 0
0.15625 0.6875 0
0.1875 0.6875 0
0.1875 0.625 0
0.21875 0.625 0
0.1875 0.65625 0
0.21875 0.65625 0
0.21875 0.625 0
0.25 0.625 0
0.21875 0.65625 0
0.25 0.65625 0
0.1875 0.65625 0
0.21875 0.65625 0
0.1875 0.6875 0
0.21875 0.6875 0
0.21875 0.65625 0
0.25 0.65625 0
0.21875 0.6875 0
0.25 0.6875 0
0.125 0.6875 0
0.15625 0.6875 0
0.125 0.71875 0
0.15625 0.71875 0
0.15625 0.6875 0
0.1875 0.6875 0
0.15625 0.71875 0
0.1875 0.71875 0
0.125 0.71875 0
0.15625 0.71875 0
0.125 0.75 0
0.15625 0.75 0
0.15625 0.71875 0
0.1875 0.71875 0
0.15625 0.75 0
0.1875 0.75 0
0.1875 0.6875 0
0.21875 0.6875 0
0.1875 0.71875 0
0.21875 0.71875 0
0.21875 0.6875 0
0.25 0.6875 0
0.21875 0.71875 0
0.25 0.71875 0
0.1875 0.71875 0
0.21875 0.71875 0
0.1875 0.75 0
0.21875 0.75 0
0.21875 0.71875 0
0.25 0.71875 0
0.21875 0.75 0
0.25 0.75 0
0.25 0.5 0
0.28125 0.5 0
0.25 0.53125 0
0.28125 0.53125 0
0.28125 0.5 0
0.3125 0.5 0
0.28125 0.53125 0
0.3125 0.53125 0
0.25 0.53125 0
0.28125 0.53125 0
0.25 0.5625 0
0.28125 0.5625 0
0.28125 0.53125 0
0.3125 0.53125 0
0.28125 0.5625 0
0.3125 0.5625 0
0.3125 0.5 0
0.34375 0.5 0
0.3125 0.53125 0
0.34375 0.53125 0
0.34375 0.5 0
0.375 0.5 0
0.34375 0.53125 0
0.375 0.53125 0
0.3125 0.53125 0
0.34375 0.53125 0
0.3125 0.5625 0
0.34375 0.5625 0
0.34375 0.53125 0
0.375 0.53125 0
0.34375 0.5625 0
0.375 0.5625 0
0.25 0.5625 0
0.28125 0.5625 0
0.25 0.59375 0
0.28125 0.59375 0
0.28125 0.5625 0
0.3125 0.5625 0
0.28125 0.59375 0
0.3125 0.59375 0
0.25 0.59375 0
0.28125 0.59375 0
0.25 0.625 0
0.28125 0.625 0
0.28125 0.59375 0
0.3125 0.59375 0
0.28125 0.625 0
0.3125 0.625 0
0.3125 0.5625 0
0.34375 0.5625 0
0.3125 0.59375 0
0.34375 0.59375 0
0.34375 0.5625 0
0.375 0.5625 0
0.34375 0.59375 0
0.375 0.59375 0
0.3125 0.59375 0
0.34375 0.59375 0
0.3125 0.625 0
0.34375 0.625 0
0.34375 0.59375 0
0.375 0.59375 0
0.34375 0.625 0
0.375 0.625 0
0.375 0.5 0
0.40625 0.5 0
0.375 0.53125 0
0.40625 0.53125 0
0.40625 0.5 0
0.4375 0.5 0
0.40625 0.53125 0
0.4375 0.53125 0
0.375 0.53125 0
0.40625 0.53125 0
0.375 0.5625 0
0.40625 0.5625 0
0.40625 0.53125 0
0.4375 0.53125 0
0.40625 0.5625 0
0.4375 0.5625 0
0.4375 0.5 0
0.46875 0.5 0
0.4375 0.53125 0
0.46875 0.53125 0
0.46875 0.5 0
0.5 0.5 0
0.46875 0.53125 0
0.5 0.53125 0
0.4375 0.53125 0
0.46875 0.53125 0
0.4375 0.5625 0
0.46875 0.5625 0
0.46875 0.53125 0
0.5 0.53125 0
0.46875 0.5625 0
0.5 0.5625 0
0.375 0.5625 0
0.40625 0.5625 0
0.375 0.59375 0
0.40625 0.59375 0
0.40625 0.5625 0
0.4375 0.5625 0
0.40625 0.59375 0
0.4375 0.59375 0
0.375 0.59375 0
0.40625 0.59375 0
0.375 0.625 0
0.40625 0.625 0
0.40625 0.59375 0
0.4375 0.59375 0
0.40625 0.625 0
0.4375 0.625 0
0.4375 0.5625 0
0.46875 0.5625 0
0.4375 0.59375 0
0.46875 0.59375 0
0.46875 0.5625 0
0.5 0.5625 0
0.46875 0.59375 0
0.5 0.59375 0
0.4375 0.59375 0
0.46875 0.59375 0
0.4375 0.625 0
0.46875 0.625 0
0.46875 0.59375 0
0.5 0.59375 0
0.46875 0.625 0
0.5 0.625 0
0.25 0.625 0
0.28125 0.625 0
0.25 0.65625 0
0.28125 0.65625 0
0.28125 0.625 0
0.3125 0.625 0
0.28125 0.65625 0
0.3125 0.65625 0
0.25 0.65625 0
0.28125 0.65625 0
0.25 0.6875 0
0.28125 0.6875 0
0.28125 0.65625 0
0.3125 0.65625 0
0.28125 0.6875 0
0.3125 0.6875 0
0.3125 0.625 0
0.34375 0.625 0
0.3125 0.65625 0
0.34375 0.65625 0
0.34375 0.625 0
0.375 0.625 0
0.34375 0.65625 0
0.375 0.65625 0
0.3125 0.65625 0
0.34375 0.65625 0
0.3125 0.6875 0
0.34375 0.6875 0
0.34375 0.65625 0
0.375 0.65625 0
0.34375 0.6875 0
0.375 0.6875 0
0.25 0.6875 0
0.28125 0.6875 0
0.25 0.71875 0
0.28125 0.71875 0
0.28125 0.6875 0
0.3125 0.6875 0
0.28125 0.71875 0
0.3125 0.71875 0
0.25 0.71875 0
0.28125 0.71875 0
0.25 0.75 0
0.28125 0.75 0
0.28125 0.71875 0
0.3125 0.71875 0
0.28125 0.75 0
0.3125 0.75 0
0.3125 0.6875 0
0.34375 0.6875 0
0.3125 0.71875 0
0.34375 0.71875 0
0.34375 0.6875 0
0.375 0.6875 0
0.34375 0.71875 0
0.375 0.71875 0
0.3125 0.71875 0
0.34375 0.71875 0
0.3125 0.75 0
0.34375 0.75 0
0.34375 0.71875 0
0.375 0.71875 0
0.34375 0.75 0
0.375 0.75 0
0.375 0.625 0
0.40625 0.625 0
0.375 0.65625 0
0.40625 0.65625 0
0.40625 0.625 0
0.4375 0.625 0
0.40625 0.65625 0
0.4375 0.65625 0
0.375 0.65625 0
0.40625 0.65625 0
0.375 0.6875 0
0.40625 0.6875 0
0.40625 0.65625 0
0.4375 0.65625 0
0.40625 0.6875 0
0.4375 0.6875 0
0.4375 0.625 0
0.46875 0.625 0
0.4375 0.65625 0
0.46875 0.65625 0
0.46875 0.625 0
0.5 0.625 0
0.46875 0.65625 0
0.5 0.65625 0
0.4375 0.65625 0
0.46875 0.65625 0
0.4375 0.6875 0
0.46875 0.6875 0
0.46875 0.65625 0
0.5 0.65625 0
0.46875 0.6875 0
0.5 0.6875 0
0.375 0.6875 0
0.40625 0.6875 0
0.375 0.71875 0
0.40625 0.71875 0
0.40625 0.6875 0
0.4375 0.6875 0
0.40625 0.71875 0
0.4375 0.71875 0
0.375 0.71875 0
0.40625 0.71875 0
0.375 0.75 0
0.40625 0.75 0
0.40625 0.71875 0
0.4375 0.71875 0
0.40625 0.75 0
0.4375 0.75 0
0.4375 0.6875 0
0.46875 0.6875 0
0.4375 0.71875 0
0.46875 0.71875 0
0.46875 0.6875 0
0.5 0.6875 0
0.46875 0.71875 0
0.5 0.71875 0
0.4375 0.71875 0
0.46875 0.71875 0
0.4375 0.75 0
0.46875 0.75 0
0.46875 0.71875 0
0.5 0.71875 0
0.46875 0.75 0
0.5 0.75 0
0 0.75 0
0.03125 0.75 0
0 0.78125 0
0.03125 0.78125 0
0.03125 0.75 0
0.0625 0.75 0
0.03125 0.78125 0
0.0625 0.78125 0
0 0.78125 0
0.03125 0.78125 0
0 0.8125 0
0.03125 0.8125 0
0.03125 0.78125 0
0.0625 0.78125 0
0.03125 0.8125 0
0.0625 0.8125 0
0.0625 0.75 0
0.09375 0.75 0
0.0625 0.78125 0
0.09375 0.78125 0
0.09375 0.75 0
0.125 0.75 0
0.09375 0.78125 0
0.125 0.78125 0
0.0625 0.78125 0
0.09375 0.78125 0
0.0625 0.8125 0
0.09375 0.8125 0
0.09375 0.78125 0
0.125 0.78125 0
0.09375 0.8125 0
0.125 0.8125 0
0 0.8125 0
0.03125 0.8125 0
0 0.84375 0
0.03125 0.84375 0
0.03125 0.8125 0
0.0625 0.8125 0
0.03125 0.84375 0
0.0625 0.84375 0
0 0.84375 0
0.03125 0.84375 0
0 0.875 0
0.03125 0.875 0
0.03125 0.84375 0
0.0625 0.84375 0
0.03125 0.875 0
0.0625 0.875 0
0.0625 0.8125 0
0.09375 0.8125 0
0.0625 0.84375 0
0.09375 0.84375 0
0.09375 0.8125 0
0.125 0.8125 0
0.09375 0.84375 0
0.125 0.84375 0
0.0625 0.84375 0
0.09375 0.84375 0
0.0625 0.875 0
0.09375 0.875 0
0.09375 0.84375 0
0.125 0.84375 0
0.09375 0.875 0
0.125 0.875 0
0.125 0.75 0
0.15625 0.75 0
0.125 0.78125 0
0.15625 0.78125 0
0.15625 0.75 0
0.1875 0.75 0
0.15625 0.78125 0
0.1875 0.78125 0
0.125 0.78125 0
0.15625 0.78125 0
0.125 0.8125 0
0.15625 0.8125 0
0.15625 0.78125 0
0.1875 0.78125 0
0.15625 0.8125 0
0.1875 0.8125 0
0.1875 0.75 0
0.21875 0.75 0
0.1875 0.78125 0
0.21875 0.78125 0
0.21875 0.75 0
0.25 0.75 0
0.21875 0.78125 0
0.25 0.78125 0
0.1875 0.78125 0
0.21875 0.78125 0
0.1875 0.8125 0
0.21875 0.8125 0
0.21875 0.78125 0
0.25 0.78125 0
0.21875 0.8125 0
0.25 0.8125 0
0.125 0.8125 0
0.15625 0.8125 0
0.125 0.84375 0
0.15625 0.84375 0
0.15625 0.8125 0
[...]
POINT_DATA 4096
SCALARS x_dis double 1
LOOKUP_TABLE default
8.06915e-07 5.30939e-07 1.26932e-06 8.39168e-07 5.30939e-07 3.80424e-07 8.39168e-07 6.01391e-07 1.26932e-06 8.39168e-07 1.98091e-06 1.3169e-06 8.39168e-07 6.01391e-07 1.3169e-06 9.44448e-07 3.80424e-07 2.92346e-07 6.01391e-07 4.60954e-07 2.92346e-07 2.34764e-07 4.60954e-07 3.6869e-07 6.01391e-07 4.60954e-07 9.44448e-07 7.22188e-07 4.60954e-07 3.6869e-07 7.22188e-07 5.7527e-07 1.98091e-06 1.3169e-06 3.06447e-06 2.05061e-06 1.3169e-06 9.44448e-07 2.05061e-06 1.47278e-06 3.06447e-06 2.05061e-06 4.69513e-06 3.16628e-06 2.05061e-06 1.47278e-06 3.16628e-06 2.27945e-06 9.44448e-07 7.22188e-07 1.47278e-06 1.1239e-06 7.22188e-07 5.7527e-07 1.1239e-06 8.91492e-07 1.47278e-06 1.1239e-06 2.27945e-06 1.73669e-06 1.1239e-06 8.91492e-07 1.73669e-06 1.37155e-06 2.34764e-07 1.92212e-07 3.6869e-07 3.00452e-07 1.92212e-07 1.57591e-07 3.00452e-07 2.45086e-07 3.6869e-07 3.00452e-07 5.7527e-07 4.6638e-07 3.00452e-07 2.45086e-07 4.6638e-07 3.78175e-07 1.57591e-07 1.27845e-07 2.45086e-07 1.97811e-07 1.27845e-07 1.01725e-07 1.97811e-07 1.56717e-07 2.45086e-07 1.97811e-07 3.78175e-07 3.03265e-07 1.97811e-07 1.56717e-07 3.03265e-07 2.38743e-07 5.7527e-07 4.6638e-07 8.91492e-07 7.18619e-07 4.6638e-07 3.78175e-07 7.18619e-07 5.78701e-07 8.91492e-07 7.18619e-07 1.37155e-06 1.09851e-06 7.18619e-07 5.78701e-07 1.09851e-06 8.77563e-07 3.78175e-07 3.03265e-07 5.78701e-07 4.6049e-07 3.03265e-07 2.38743e-07 4.6049e-07 3.59624e-07 5.78701e-07 4.6049e-07 8.77563e-07 6.9195e-07 4.6049e-07 3.59624e-07 6.9195e-07 5.35205e-07 4.69513e-06 3.16628e-06 7.11683e-06 4.84424e-06 3.16628e-06 2.27945e-06 4.84424e-06 3.49968e-06 7.11683e-06 4.84424e-06 1.06599e-05 7.33756e-06 4.84424e-06 3.49968e-06 7.33756e-06 5.32671e-06 2.27945e-06 1.73669e-06 3.49968e-06 2.66337e-06 1.73669e-06 1.37155e-06 2.66337e-06 2.0936e-06 3.49968e-06 2.66337e-06 5.32671e-06 4.05097e-06 2.66337e-06 2.0936e-06 4.05097e-06 3.1678e-06 1.06599e-05 7.33756e-06 1.57557e-05 1.09922e-05 7.33756e-06 5.32671e-06 1.09922e-05 8.03038e-06 1.57557e-05 1.09922e-05 2.29382e-05 1.62632e-05 1.09922e-05 8.03038e-06 1.62632e-05 1.1973e-05 5.32671e-06 4.05097e-06 8.03038e-06 6.10414e-06 4.05097e-06 3.1678e-06 6.10414e-06 4.74407e-06 8.03038e-06 6.10414e-06 1.1973e-05 9.09494e-06 6.10414e-06 4.74407e-06 9.09494e-06 7.01531e-06 1.37155e-06 1.09851e-06 2.0936e-06 1.66451e-06 1.09851e-06 8.77563e-07 1.66451e-06 1.31732e-06 2.0936e-06 1.66451e-06 3.1678e-06 2.49689e-06 1.66451e-06 1.31732e-06 2.49689e-06 1.95442e-06 8.77563e-07 6.9195e-07 1.31732e-06 1.02762e-06 6.9195e-07 5.35205e-07 1.02762e-06 7.85869e-07 1.31732e-06 1.02762e-06 1.95442e-06 1.50567e-06 1.02762e-06 7.85869e-07 1.50567e-06 1.13643e-06 3.1678e-06 2.49689e-06 4.74407e-06 3.70108e-06 2.49689e-06 1.95442e-06 3.70108e-06 2.85971e-06 4.74407e-06 3.70108e-06 7.01531e-06 5.40599e-06 3.70108e-06 2.85971e-06 5.40599e-06 4.11457e-06 1.95442e-06 1.50567e-06 2.85971e-06 2.17155e-06 1.50567e-06 1.13643e-06 2.17155e-06 1.61475e-06 2.85971e-06 2.17155e-06 4.11457e-06 3.0738e-06 2.17155e-06 1.61475e-06 3.0738e-06 2.24815e-06 1.01725e-07 7.86693e-08 1.56717e-07 1.20974e-07 7.86693e-08 5.82882e-08 1.20974e-07 8.99714e-08 1.56717e-07 1.20974e-07 2.38743e-07 1.83343e-07 1.20974e-07 8.99714e-08 1.83343e-07 1.36045e-07 5.82882e-08 4.02138e-08 8.99714e-08 6.29497e-08 4.02138e-08 2.42947e-08 6.29497e-08 3.89019e-08 8.99714e-08 6.29497e-08 1.36045e-07 9.53787e-08 6.29497e-08 3.89019e-08 9.53787e-08 5.88581e-08 2.38743e-07 1.83343e-07 3.59624e-07 2.74182e-07 1.83343e-07 1.36045e-07 2.74182e-07 2.02539e-07 3.59624e-07 2.74182e-07 5.35205e-07 4.04371e-07 2.74182e-07 2.02539e-07 4.04371e-07 2.96835e-07 1.36045e-07 9.53787e-08 2.02539e-07 1.42373e-07 9.53787e-08 5.88581e-08 1.42373e-07 9.00545e-08 2.02539e-07 1.42373e-07 2.96835e-07 2.09119e-07 1.42373e-07 9.00545e-08 2.09119e-07 1.36562e-07 2.42947e-08 1.16868e-08 3.89019e-08 1.63051e-08 1.16868e-08 7.52832e-09 1.63051e-08 -7.98294e-09 3.89019e-08 1.63051e-08 5.88581e-08 2.17753e-08 1.63051e-08 -7.98294e-09 2.17753e-08 -2.67776e-08 7.52832e-09 4.22008e-08 -7.98294e-09 -5.78672e-08 4.22008e-08 1.30821e-07 -5.78672e-08 -2.42909e-07 -7.98294e-09 -5.78672e-08 -2.67776e-08 -1.12901e-07 -5.78672e-08 -2.42909e-07 -1.12901e-07 -2.0282e-07 5.88581e-08 2.17753e-08 9.00545e-08 3.98827e-08 2.17753e-08 -2.67776e-08 3.98827e-08 -1.68195e-08 9.00545e-08 3.98827e-08 1.36562e-07 7.3462e-08 3.98827e-08 -1.68195e-08 7.3462e-08 1.52976e-08 -2.67776e-08 -1.12901e-07 -1.68195e-08 -8.00607e-08 -1.12901e-07 -2.0282e-07 -8.00607e-08 -1.36203e-07 -1.68195e-08 -8.00607e-08 1.52976e-08 -3.88529e-08 -8.00607e-08 -1.36203e-07 -3.88529e-08 -8.4108e-08 5.35205e-07 4.04371e-07 7.85869e-07 5.87305e-07 4.04371e-07 2.96835e-07 5.87305e-07 4.27436e-07 7.85869e-07 5.87305e-07 1.13643e-06 8.38483e-07 5.87305e-07 4.27436e-07 8.38483e-07 6.03561e-07 2.96835e-07 2.09119e-07 4.27436e-07 3.00691e-07 2.09119e-07 1.36562e-07 3.00691e-07 2.00479e-07 4.27436e-07 3.00691e-07 6.03561e-07 4.22029e-07 3.00691e-07 2.00479e-07 4.22029e-07 2.8339e-07 1.13643e-06 8.38483e-07 1.61475e-06 1.1742e-06 8.38483e-07 6.03561e-07 1.1742e-06 8.34221e-07 1.61475e-06 1.1742e-06 2.24815e-06 1.6089e-06 1.1742e-06 8.34221e-07 1.6089e-06 1.12648e-06 6.03561e-07 4.22029e-07 8.34221e-07 5.77626e-07 4.22029e-07 2.8339e-07 5.77626e-07 3.86877e-07 8.34221e-07 5.77626e-07 1.12648e-06 7.7052e-07 5.77626e-07 3.86877e-07 7.7052e-07 5.12003e-07 1.36562e-07 7.3462e-08 2.00479e-07 1.20041e-07 7.3462e-08 1.52976e-08 1.20041e-07 5.35767e-08 2.00479e-07 1.20041e-07 2.8339e-07 1.77346e-07 1.20041e-07 5.35767e-08 1.77346e-07 9.47419e-08 1.52976e-08 -3.88529e-08 5.35767e-08 -2.54804e-09 -3.88529e-08 -8.4108e-08 -2.54804e-09 -5.01019e-08 5.35767e-08 -2.54804e-09 9.47419e-08 2.79844e-08 -2.54804e-09 -5.01019e-08 2.79844e-08 -2.92879e-08 2.8339e-07 1.77346e-07 3.86877e-07 2.45528e-07 1.77346e-07 9.47419e-08 2.45528e-07 1.39091e-07 3.86877e-07 2.45528e-07 5.12003e-07 3.25039e-07 2.45528e-07 1.39091e-07 3.25039e-07 1.87601e-07 9.47419e-08 2.79844e-08 1.39091e-07 5.51914e-08 2.79844e-08 -2.92879e-08 5.51914e-08 -1.69542e-08 1.39091e-07 5.51914e-08 1.87601e-07 8.12643e-08 5.51914e-08 -1.69542e-08 8.12643e-08 -9.76398e-09 2.29382e-05 1.62632e-05 3.28125e-05 2.37094e-05 1.62632e-05 1.1973e-05 2.37094e-05 1.76079e-05 3.28125e-05 2.37094e-05 4.59482e-05 3.3926e-05 2.37094e-05 1.76079e-05 3.3926e-05 2.54235e-05 1.1973e-05 9.09494e-06 1.76079e-05 1.33559e-05 9.09494e-06 7.01531e-06 1.33559e-05 1.02051e-05 1.76079e-05 1.33559e-05 2.54235e-05 1.92295e-05 1.33559e-05 1.02051e-05 1.92295e-05 1.45256e-05 4.59482e-05 3.3926e-05 6.26206e-05 4.7335e-05 3.3926e-05 2.54235e-05 4.7335e-05 3.57726e-05 6.26206e-05 4.7335e-05 8.23229e-05 6.37379e-05 4.7335e-05 3.57726e-05 6.37379e-05 4.85257e-05 2.54235e-05 1.92295e-05 3.57726e-05 2.69372e-05 1.92295e-05 1.45256e-05 2.69372e-05 2.00821e-05 3.57726e-05 2.69372e-05 4.85257e-05 3.63408e-05 2.69372e-05 2.00821e-05 3.63408e-05 2.67247e-05 7.01531e-06 5.40599e-06 1.02051e-05 7.75089e-06 5.40599e-06 4.11457e-06 7.75089e-06 5.79909e-06 1.02051e-05 7.75089e-06 1.45256e-05 1.08514e-05 7.75089e-06 5.79909e-06 1.08514e-05 7.96769e-06 4.11457e-06 3.0738e-06 5.79909e-06 4.25477e-06 3.0738e-06 2.24815e-06 4.25477e-06 3.05686e-06 5.79909e-06 4.25477e-06 7.96769e-06 5.73454e-06 4.25477e-06 3.05686e-06 5.73454e-06 4.04421e-06 1.45256e-05 1.08514e-05 2.00821e-05 1.47373e-05 1.08514e-05 7.96769e-06 1.47373e-05 1.06107e-05 2.00821e-05 1.47373e-05 2.67247e-05 1.92646e-05 1.47373e-05 1.06107e-05 1.92646e-05 1.36067e-05 7.96769e-06 5.73454e-06 1.06107e-05 7.48879e-06 5.73454e-06 4.04421e-06 7.48879e-06 5.1846e-06 1.06107e-05 7.48879e-06 1.36067e-05 9.42483e-06 7.48879e-06 5.1846e-06 9.42483e-06 6.4123e-06 8.23229e-05 6.37379e-05 0.000103128 8.16787e-05 6.37379e-05 4.85257e-05 8.16787e-05 6.26103e-05 0.000103128 8.16787e-05 0.000121514 9.81511e-05 8.16787e-05 6.26103e-05 9.81511e-05 7.57941e-05 4.85257e-05 3.63408e-05 6.26103e-05 4.66559e-05 3.63408e-05 2.67247e-05 4.66559e-05 3.38846e-05 6.26103e-05 4.66559e-05 7.57941e-05 5.63225e-05 4.66559e-05 3.38846e-05 5.63225e-05 4.05148e-05 0.000121514 9.81511e-05 0.000133701 0.000109565 9.81511e-05 7.57941e-05 0.000109565 8.52289e-05 0.000133701 0.000109565 0.00013783 0.00011358 0.000109565 8.52289e-05 0.00011358 8.86471e-05 7.57941e-05 5.63225e-05 8.52289e-05 6.33073e-05 5.63225e-05 4.05148e-05 6.33073e-05 4.52784e-05 8.52289e-05 6.33073e-05 8.86471e-05 6.58638e-05 6.33073e-05 4.52784e-05 6.58638e-05 4.70193e-05 2.67247e-05 1.92646e-05 3.38846e-05 2.40327e-05 1.92646e-05 1.36067e-05 2.40327e-05 1.66842e-05 3.38846e-05 2.40327e-05 4.05148e-05 2.83665e-05 2.40327e-05 1.66842e-05 2.83665e-05 1.94245e-05 1.36067e-05 9.42483e-06 1.66842e-05 1.13661e-05 9.42483e-06 6.4123e-06 1.13661e-05 7.61637e-06 1.66842e-05 1.13661e-05 1.94245e-05 1.30605e-05 1.13661e-05 7.61637e-06 1.30605e-05 8.64851e-06 4.05148e-05 2.83665e-05 4.52784e-05 3.14409e-05 2.83665e-05 1.94245e-05 3.14409e-05 2.13402e-05 4.52784e-05 3.14409e-05 4.70193e-05 3.25573e-05 3.14409e-05 2.13402e-05 3.25573e-05 2.20305e-05 1.94245e-05 1.30605e-05 2.13402e-05 1.42283e-05 1.30605e-05 8.64851e-06 1.42283e-05 9.35079e-06 2.13402e-05 1.42283e-05 2.20305e-05 1.4646e-05 1.42283e-05 9.35079e-06 1.4646e-05 9.60032e-06 2.24815e-06 1.6089e-06 3.05686e-06 2.15093e-06 1.6089e-06 1.12648e-06 2.15093e-06 1.48285e-06 3.05686e-06 2.15093e-06 4.04421e-06 2.79685e-06 2.15093e-06 1.48285e-06 2.79685e-06 1.89818e-06 1.12648e-06 7.7052e-07 1.48285e-06 1.00074e-06 7.7052e-07 5.12003e-07 1.00074e-06 6.58068e-07 1.48285e-06 1.00074e-06 1.89818e-06 1.26359e-06 1.00074e-06 6.58068e-07 1.26359e-06 8.21565e-07 4.04421e-06 2.79685e-06 5.1846e-06 3.52533e-06 2.79685e-06 1.89818e-06 3.52533e-06 2.35663e-06 5.1846e-06 3.52533e-06 6.4123e-06 4.29226e-06 3.52533e-06 2.35663e-06 4.29226e-06 2.82982e-06 1.89818e-06 1.26359e-06 2.35663e-06 1.54817e-06 1.26359e-06 8.21565e-07 1.54817e-06 9.95489e-07 2.35663e-06 1.54817e-06 2.82982e-06 1.83681e-06 1.54817e-06 9.95489e-07 1.83681e-06 1.16917e-06 5.12003e-07 3.25039e-07 6.58068e-07 4.154e-07 3.25039e-07 1.87601e-07 4.154e-07 2.40554e-07 6.58068e-07 4.154e-07 8.21565e-07 5.14461e-07 4.154e-07 2.40554e-07 5.14461e-07 2.97097e-07 1.87601e-07 8.12643e-08 2.40554e-07 1.0747e-07 8.12643e-08 -9.76398e-09 1.0747e-07 -5.60832e-09 2.40554e-07 1.0747e-07 2.97097e-07 1.34115e-07 1.0747e-07 -5.60832e-09 1.34115e-07 -3.21741e-09 8.21565e-07 5.14461e-07 9.95489e-07 6.18072e-07 5.14461e-07 2.97097e-07 6.18072e-07 3.55162e-07 9.95489e-07 6.18072e-07 1.16917e-06 7.20099e-07 6.18072e-07 3.55162e-07 7.20099e-07 4.11569e-07 2.97097e-07 1.34115e-07 3.55162e-07 1.6069e-07 1.34115e-07 -3.21741e-09 1.6069e-07 -1.84585e-09 3.55162e-07 1.6069e-07 4.11569e-07 1.86045e-07 1.6069e-07 -1.84585e-09 1.86045e-07 -1.06211e-09 6.4123e-06 4.29226e-06 7.61637e-06 5.02976e-06 4.29226e-06 2.82982e-06 5.02976e-06 3.27707e-06 7.61637e-06 5.02976e-06 8.64851e-06 5.65197e-06 5.02976e-06 3.27707e-06 5.65197e-06 3.64923e-06 2.82982e-06 1.83681e-06 3.27707e-06 2.10556e-06 1.83681e-06 1.16917e-06 2.10556e-06 1.32879e-06 3.27707e-06 2.10556e-06 3.64923e-06 2.32653e-06 2.10556e-06 1.32879e-06 2.32653e-06 1.45868e-06 8.64851e-06 5.65197e-06 9.35079e-06 6.07061e-06 5.65197e-06 3.64923e-06 6.07061e-06 3.89722e-06 9.35079e-06 6.07061e-06 9.60032e-06 6.2185e-06 6.07061e-06 3.89722e-06 6.2185e-06 3.98439e-06 3.64923e-06 2.32653e-06 3.89722e-06 2.47256e-06 2.32653e-06 1.45868e-06 2.47256e-06 1.54392e-06 3.89722e-06 2.47256e-06 3.98439e-06 2.52367e-06 2.47256e-06 1.54392e-06 2.52367e-06 1.57365e-06 1.16917e-06 7.20099e-07 1.32879e-06 8.12794e-07 7.20099e-07 4.11569e-07 8.12794e-07 4.62293e-07 1.32879e-06 8.12794e-07 1.45868e-06 8.87571e-07 8.12794e-07 4.62293e-07 8.87571e-07 5.02905e-07 4.11569e-07 1.86045e-07 4.62293e-07 2.08582e-07 1.86045e-07 -1.06211e-09 2.08582e-07 -6.18714e-10 4.62293e-07 2.08582e-07 5.02905e-07 2.26489e-07 2.08582e-07 -6.18714e-10 2.26489e-07 -3.75408e-10 1.45868e-06 8.87571e-07 1.54392e-06 9.36345e-07 8.87571e-07 5.02905e-07 9.36345e-07 5.29262e-07 1.54392e-06 9.36345e-07 1.57365e-06 9.53304e-07 9.36345e-07 5.29262e-07 9.53304e-07 5.38404e-07 5.02905e-07 2.26489e-07 5.29262e-07 2.38058e-07 2.26489e-07 -3.75408e-10 2.38058e-07 -2.54942e-10 5.29262e-07 2.38058e-07 5.38404e-07 2.42062e-07 2.38058e-07 -2.54942e-10 2.42062e-07 -2.187e-10 1.30821e-07 1.28057e-07 -2.42909e-07 -2.76383e-07 1.28057e-07 2.47259e-08 -2.76383e-07 -1.27432e-07 -2.42909e-07 -2.76383e-07 -2.0282e-07 -2.27974e-07 -2.76383e-07 -1.27432e-07 -2.27974e-07 -1.8048e-07 2.47259e-08 -4.62243e-08 -1.27432e-07 -8.56648e-08 -4.62243e-08 -8.14626e-08 -8.56648e-08 -8.29008e-08 -1.27432e-07 -8.56648e-08 -1.8048e-07 -1.2584e-07 -8.56648e-08 -8.29008e-08 -1.2584e-07 -1.11373e-07 -2.0282e-07 -2.27974e-07 -1.36203e-07 -1.61683e-07 -2.27974e-07 -1.8048e-07 -1.61683e-07 -1.5546e-07 -1.36203e-07 -1.61683e-07 -8.4108e-08 -1.15267e-07 -1.61683e-07 -1.5546e-07 -1.15267e-07 -1.3464e-07 -1.8048e-07 -1.2584e-07 -1.5546e-07 -1.42812e-07 -1.2584e-07 -1.11373e-07 -1.42812e-07 -1.4459e-07 -1.5546e-07 -1.42812e-07 -1.3464e-07 -1.53152e-07 -1.42812e-07 -1.4459e-07 -1.53152e-07 -1.83452e-07 -8.14626e-08 -1.08579e-07 -8.29008e-08 -9.61008e-08 -1.08579e-07 -1.3744e-07 -9.61008e-08 -1.18203e-07 -8.29008e-08 -9.61008e-08 -1.11373e-07 -1.22161e-07 -9.61008e-08 -1.18203e-07 -1.22161e-07 -1.49103e-07 -1.3744e-07 -1.71757e-07 -1.18203e-07 -1.47265e-07 -1.71757e-07 -2.1187e-07 -1.47265e-07 -1.82394e-07 -1.18203e-07 -1.47265e-07 -1.49103e-07 -1.87895e-07 -1.47265e-07 -1.82394e-07 -1.87895e-07 -2.3677e-07 -1.11373e-07 -1.22161e-07 -1.4459e-07 -1.68843e-07 -1.22161e-07 -1.49103e-07 -1.68843e-07 -2.12712e-07 -1.4459e-07 -1.68843e-07 -1.83452e-07 -2.33355e-07 -1.68843e-07 -2.12712e-07 -2.33355e-07 -3.06598e-07 -1.49103e-07 -1.87895e-07 -2.12712e-07 -2.74028e-07 -1.87895e-07 -2.3677e-07 -2.74028e-07 -3.51767e-07 -2.12712e-07 -2.74028e-07 -3.06598e-07 -4.04597e-07 -2.74028e-07 -3.51767e-07 -4.04597e-07 -5.28456e-07 -8.4108e-08 -1.15267e-07 -5.01019e-08 -9.09585e-08 -1.15267e-07 -1.3464e-07 -9.09585e-08 -1.29856e-07 -5.01019e-08 -9.09585e-08 -2.92879e-08 -8.33253e-08 -9.09585e-08 -1.29856e-07 -8.33253e-08 -1.41492e-07 -1.3464e-07 -1.53152e-07 -1.29856e-07 -1.74928e-07 -1.53152e-07 -1.83452e-07 -1.74928e-07 -2.35586e-07 -1.29856e-07 -1.74928e-07 -1.41492e-07 -2.12802e-07 -1.74928e-07 -2.35586e-07 -2.12802e-07 -3.07565e-07 -2.92879e-08 -8.33253e-08 -1.69542e-08 -8.75047e-08 -8.33253e-08 -1.41492e-07 -8.75047e-08 -1.67078e-07 -1.69542e-08 -8.75047e-08 -9.76398e-09 -9.99921e-08 -8.75047e-08 -1.67078e-07 -9.99921e-08 -2.04123e-07 -1.41492e-07 -2.12802e-07 -1.67078e-07 -2.67586e-07 -2.12802e-07 -3.07565e-07 -2.67586e-07 -4.02668e-07 -1.67078e-07 -2.67586e-07 -2.04123e-07 -3.38444e-07 -2.67586e-07 -4.02668e-07 -3.38444e-07 -5.2197e-07 -1.83452e-07 -2.33355e-07 -2.35586e-07 -3.20426e-07 -2.33355e-07 -3.06598e-07 -3.20426e-07 -4.36284e-07 -2.35586e-07 -3.20426e-07 -3.07565e-07 -4.36634e-07 -3.20426e-07 -4.36284e-07 -4.36634e-07 -6.1081e-07 -3.06598e-07 -4.04597e-07 -4.36284e-07 -5.8858e-07 -4.04597e-07 -5.28456e-07 -5.8858e-07 -7.81571e-07 -4.36284e-07 -5.8858e-07 -6.1081e-07 -8.40292e-07 -5.8858e-07 -7.81571e-07 -8.40292e-07 -1.13415e-06 -3.07565e-07 -4.36634e-07 -4.02668e-07 -5.87742e-07 -4.36634e-07 -6.1081e-07 -5.87742e-07 -8.39675e-07 -4.02668e-07 -5.87742e-07 -5.2197e-07 -7.77212e-07 -5.87742e-07 -8.39675e-07 -7.77212e-07 -1.13033e-06 -6.1081e-07 -8.40292e-07 -8.39675e-07 -1.17601e-06 -8.40292e-07 -1.13415e-06 -1.17601e-06 -1.61374e-06 -8.39675e-07 -1.17601e-06 -1.13033e-06 -1.61043e-06 -1.17601e-06 -1.61374e-06 -1.61043e-06 -2.24782e-06 -2.1187e-07 -2.56358e-07 -1.82394e-07 -2.22645e-07 -2.56358e-07 -3.02269e-07 -2.22645e-07 -2.66899e-07 -1.82394e-07 -2.22645e-07 -2.3677e-07 -2.94921e-07 -2.22645e-07 -2.66899e-07 -2.94921e-07 -3.62262e-07 -3.02269e-07 -3.44891e-07 -2.66899e-07 -3.14346e-07 -3.44891e-07 -3.77507e-07 -3.14346e-07 -3.65886e-07 -2.66899e-07 -3.14346e-07 -3.62262e-07 -4.40369e-07 -3.14346e-07 -3.65886e-07 -4.40369e-07 -5.34913e-07 -2.3677e-07 -2.94921e-07 -3.51767e-07 -4.45712e-07 -2.94921e-07 -3.62262e-07 -4.45712e-07 -5.56675e-07 -3.51767e-07 -4.45712e-07 -5.28456e-07 -6.79301e-07 -4.45712e-07 -5.56675e-07 -6.79301e-07 -8.59191e-07 -3.62262e-07 -4.40369e-07 -5.56675e-07 -6.88174e-07 -4.40369e-07 -5.34913e-07 -6.88174e-07 -8.50423e-07 -5.56675e-07 -6.88174e-07 -8.59191e-07 -1.07396e-06 -6.88174e-07 -8.50423e-07 -1.07396e-06 -1.33968e-06 -3.77507e-07 -3.92138e-07 -3.65886e-07 -4.27147e-07 -3.92138e-07 -3.84175e-07 -4.27147e-07 -5.13701e-07 -3.65886e-07 -4.27147e-07 -5.34913e-07 -6.60258e-07 -4.27147e-07 -5.13701e-07 -6.60258e-07 -8.47044e-07 -3.84175e-07 -3.70172e-07 -5.13701e-07 -6.56075e-07 -3.70172e-07 -4.26425e-07 -6.56075e-07 -9.10345e-07 -5.13701e-07 -6.56075e-07 -8.47044e-07 -1.15636e-06 -6.56075e-07 -9.10345e-07 -1.15636e-06 -1.71994e-06 -5.34913e-07 -6.60258e-07 -8.50423e-07 -1.06801e-06 -6.60258e-07 -8.47044e-07 -1.06801e-06 -1.39377e-06 -8.50423e-07 -1.06801e-06 -1.33968e-06 -1.69516e-06 -1.06801e-06 -1.39377e-06 -1.69516e-06 -2.22397e-06 -8.47044e-07 -1.15636e-06 -1.39377e-06 -1.93449e-06 -1.15636e-06 -1.71994e-06 -1.93449e-06 -2.88594e-06 -1.39377e-06 -1.93449e-06 -2.22397e-06 -3.08875e-06 -1.93449e-06 -2.88594e-06 -3.08875e-06 -4.57905e-06 -5.28456e-07 -6.79301e-07 -7.81571e-07 -1.01877e-06 -6.79301e-07 -8.59191e-07 -1.01877e-06 -1.30429e-06 -7.81571e-07 -1.01877e-06 -1.13415e-06 -1.50008e-06 -1.01877e-06 -1.30429e-06 -1.50008e-06 -1.94592e-06 -8.59191e-07 -1.07396e-06 -1.30429e-06 -1.64722e-06 -1.07396e-06 -1.33968e-06 -1.64722e-06 -2.07151e-06 -1.30429e-06 -1.64722e-06 -1.94592e-06 -2.48555e-06 -1.64722e-06 -2.07151e-06 -2.48555e-06 -3.15343e-06 -1.13415e-06 -1.50008e-06 -1.61374e-06 -2.16825e-06 -1.50008e-06 -1.94592e-06 -2.16825e-06 -2.85444e-06 -1.61374e-06 -2.16825e-06 -2.24782e-06 -3.07195e-06 -2.16825e-06 -2.85444e-06 -3.07195e-06 -4.11142e-06 -1.94592e-06 -2.48555e-06 -2.85444e-06 -3.69397e-06 -2.48555e-06 -3.15343e-06 -3.69397e-06 -4.73508e-06 -2.85444e-06 -3.69397e-06 -4.11142e-06 -5.40167e-06 -3.69397e-06 -4.73508e-06 -5.40167e-06 -7.00983e-06 -1.33968e-06 -1.69516e-06 -2.07151e-06 -2.63534e-06 -1.69516e-06 -2.22397e-06 -2.63534e-06 -3.46338e-06 -2.07151e-06 -2.63534e-06 -3.15343e-06 -4.03303e-06 -2.63534e-06 -3.46338e-06 -4.03303e-06 -5.30391e-06 -2.22397e-06 -3.08875e-06 -3.46338e-06 -4.79486e-06 -3.08875e-06 -4.57905e-06 -4.79486e-06 -7.04342e-06 -3.46338e-06 -4.79486e-06 -5.30391e-06 -7.30692e-06 -4.79486e-06 -7.04342e-06 -7.30692e-06 -1.06144e-05 -3.15343e-06 -4.03303e-06 -4.73508e-06 -6.09302e-06 -4.03303e-06 -5.30391e-06 -6.09302e-06 -8.0164e-06 -4.73508e-06 -6.09302e-06 -7.00983e-06 -9.08819e-06 -6.09302e-06 -8.0164e-06 -9.08819e-06 -1.19645e-05 -5.30391e-06 -7.30692e-06 -8.0164e-06 -1.09735e-05 -7.30692e-06 -1.06144e-05 -1.09735e-05 -1.57277e-05 -8.0164e-06 -1.09735e-05 -1.19645e-05 -1.62519e-05 -1.09735e-05 -1.57277e-05 -1.62519e-05 -2.29211e-05 -9.76398e-09 -9.99921e-08 -5.60832e-09 -1.18279e-07 -9.99921e-08 -2.04123e-07 -1.18279e-07 -2.50225e-07 -5.60832e-09 -1.18279e-07 -3.21741e-09 -1.40339e-07 -1.18279e-07 -2.50225e-07 -1.40339e-07 -3.02728e-07 -2.04123e-07 -3.38444e-07 -2.50225e-07 -4.23424e-07 -3.38444e-07 -5.2197e-07 -4.23424e-07 -6.64216e-07 -2.50225e-07 -4.23424e-07 -3.02728e-07 -5.19217e-07 -4.23424e-07 -6.64216e-07 -5.19217e-07 -8.25296e-07 -3.21741e-09 -1.40339e-07 -1.84585e-09 -1.64272e-07 -1.40339e-07 -3.02728e-07 -1.64272e-07 -3.58431e-07 -1.84585e-09 -1.64272e-07 -1.06211e-09 -1.88111e-07 -1.64272e-07 -3.58431e-07 -1.88111e-07 -4.13468e-07 -3.02728e-07 -5.19217e-07 -3.58431e-07 -6.20872e-07 -5.19217e-07 -8.25296e-07 -6.20872e-07 -9.9773e-07 -3.58431e-07 -6.20872e-07 -4.13468e-07 -7.21746e-07 -6.20872e-07 -9.9773e-07 -7.21746e-07 -1.17051e-06 -5.2197e-07 -7.77212e-07 -6.64216e-07 -1.00503e-06 -7.77212e-07 -1.13033e-06 -1.00503e-06 -1.48545e-06 -6.64216e-07 -1.00503e-06 -8.25296e-07 -1.26627e-06 -1.00503e-06 -1.48545e-06 -1.26627e-06 -1.89988e-06 -1.13033e-06 -1.61043e-06 -1.48545e-06 -2.1521e-06 -1.610