# vtk DataFile Version 3.0
#This file was generated by the deal.II library on 2022/11/17 at 0:21:02
ASCII
DATASET UNSTRUCTURED_GRID

POINTS 5152 double
0 0.5 0
0.03125 0.5 0
0 0.53125 0
0.03125 0.53125 0
0.03125 0.5 0
0.0625 0.5 0
0.03125 0.53125 0
0.0625 0.53125 0
0 0.53125 0
0.03125 0.53125 0
0 0.5625 0
0.03125 0.5625 0
0.03125 0.53125 0
0.0625 0.53125 0
0.03125 0.5625 0
0.0625 0.5625 0
0.0625 0.5 0
0.09375 0.5 0
0.0625 0.53125 0
0.09375 0.53125 0
0.09375 0.5 0
0.125 0.5 0
0.09375 0.53125 0
0.125 0.53125 0
0.0625 0.53125 0
0.09375 0.53125 0
0.0625 0.5625 0
0.09375 0.5625 0
0.09375 0.53125 0
0.125 0.53125 0
0.09375 0.5625 0
0.125 0.5625 0
0 0.5625 0
0.03125 0.5625 0
0 0.59375 0
0.03125 0.59375 0
0.03125 0.5625 0
0.0625 0.5625 0
0.03125 0.59375 0
0.0625 0.59375 0
0 0.59375 0
0.03125 0.59375 0
0 0.625 0
0.03125 0.625 0
0.03125 0.59375 0
0.0625 0.59375 0
0.03125 0.625 0
0.0625 0.625 0
0.0625 0.5625 0
0.09375 0.5625 0
0.0625 0.59375 0
0.09375 0.59375 0
0.09375 0.5625 0
0.125 0.5625 0
0.09375 0.59375 0
0.125 0.59375 0
0.0625 0.59375 0
0.09375 0.59375 0
0.0625 0.625 0
0.09375 0.625 0
0.09375 0.59375 0
0.125 0.59375 0
0.09375 0.625 0
0.125 0.625 0
0.125 0.5 0
0.15625 0.5 0
0.125 0.53125 0
0.15625 0.53125 0
0.15625 0.5 0
0.1875 0.5 0
0.15625 0.53125 0
0.1875 0.53125 0
0.125 0.53125 0
0.15625 0.53125 0
0.125 0.5625 0
0.15625 0.5625 0
0.15625 0.53125 0
0.1875 0.53125 0
0.15625 0.5625 0
0.1875 0.5625 0
0.1875 0.5 0
0.21875 0.5 0
0.1875 0.53125 0
0.21875 0.53125 0
0.21875 0.5 0
0.25 0.5 0
0.21875 0.53125 0
0.25 0.53125 0
0.1875 0.53125 0
0.21875 0.53125 0
0.1875 0.5625 0
0.21875 0.5625 0
0.21875 0.53125 0
0.25 0.53125 0
0.21875 0.5625 0
0.25 0.5625 0
0.125 0.5625 0
0.15625 0.5625 0
0.125 0.59375 0
0.15625 0.59375 0
0.15625 0.5625 0
0.1875 0.5625 0
0.15625 0.59375 0
0.1875 0.59375 0
0.125 0.59375 0
0.15625 0.59375 0
0.125 0.625 0
0.15625 0.625 0
0.15625 0.59375 0
0.1875 0.59375 0
0.15625 0.625 0
0.1875 0.625 0
0.1875 0.5625 0
0.21875 0.5625 0
0.1875 0.59375 0
0.21875 0.59375 0
0.21875 0.5625 0
0.25 0.5625 0
0.21875 0.59375 0
0.25 0.59375 0
0.1875 0.59375 0
0.21875 0.59375 0
0.1875 0.625 0
0.21875 0.625 0
0.21875 0.59375 0
0.25 0.59375 0
0.21875 0.625 0
0.25 0.625 0
0 0.625 0
0.03125 0.625 0
0 0.65625 0
0.03125 0.65625 0
0.03125 0.625 0
0.0625 0.625 0
0.03125 0.65625 0
0.0625 0.65625 0
0 0.65625 0
0.03125 0.65625 0
0 0.6875 0
0.03125 0.6875 0
0.03125 0.65625 0
0.0625 0.65625 0
0.03125 0.6875 0
0.0625 0.6875 0
0.0625 0.625 0
0.09375 0.625 0
0.0625 0.65625 0
0.09375 0.65625 0
0.09375 0.625 0
0.125 0.625 0
0.09375 0.65625 0
0.125 0.65625 0
0.0625 0.65625 0
0.09375 0.65625 0
0.0625 0.6875 0
0.09375 0.6875 0
0.09375 0.65625 0
0.125 0.65625 0
0.09375 0.6875 0
0.125 0.6875 0
0 0.6875 0
0.03125 0.6875 0
0 0.71875 0
0.03125 0.71875 0
0.03125 0.6875 0
0.0625 0.6875 0
0.03125 0.71875 0
0.0625 0.71875 0
0 0.71875 0
0.03125 0.71875 0
0 0.75 0
0.03125 0.75 0
0.03125 0.71875 0
0.0625 0.71875 0
0.03125 0.75 0
0.0625 0.75 0
0.0625 0.6875 0
0.09375 0.6875 0
0.0625 0.71875 0
0.09375 0.71875 0
0.09375 0.6875 0
0.125 0.6875 0
0.09375 0.71875 0
0.125 0.71875 0
0.0625 0.71875 0
0.09375 0.71875 0
0.0625 0.75 0
0.09375 0.75 0
0.09375 0.71875 0
0.125 0.71875 0
0.09375 0.75 0
0.125 0.75 0
0.125 0.625 0
0.15625 0.625 0
0.125 0.65625 0
0.15625 0.65625 0
0.15625 0.625 0
0.1875 0.625 0
0.15625 0.65625 0
0.1875 0.65625 0
0.125 0.65625 0
0.15625 0.65625 0
0.125 0.6875 0
0.15625 0.6875 0
0.15625 0.65625 0
0.1875 0.65625 0
0.15625 0.6875 0
0.1875 0.6875 0
0.1875 0.625 0
0.21875 0.625 0
0.1875 0.65625 0
0.21875 0.65625 0
0.21875 0.625 0
0.25 0.625 0
0.21875 0.65625 0
0.25 0.65625 0
0.1875 0.65625 0
0.21875 0.65625 0
0.1875 0.6875 0
0.21875 0.6875 0
0.21875 0.65625 0
0.25 0.65625 0
0.21875 0.6875 0
0.25 0.6875 0
0.125 0.6875 0
0.15625 0.6875 0
0.125 0.71875 0
0.15625 0.71875 0
0.15625 0.6875 0
0.1875 0.6875 0
0.15625 0.71875 0
0.1875 0.71875 0
0.125 0.71875 0
0.15625 0.71875 0
0.125 0.75 0
0.15625 0.75 0
0.15625 0.71875 0
0.1875 0.71875 0
0.15625 0.75 0
0.1875 0.75 0
0.1875 0.6875 0
0.21875 0.6875 0
0.1875 0.71875 0
0.21875 0.71875 0
0.21875 0.6875 0
0.25 0.6875 0
0.21875 0.71875 0
0.25 0.71875 0
0.1875 0.71875 0
0.21875 0.71875 0
0.1875 0.75 0
0.21875 0.75 0
0.21875 0.71875 0
0.25 0.71875 0
0.21875 0.75 0
0.25 0.75 0
0.25 0.5 0
0.28125 0.5 0
0.25 0.53125 0
0.28125 0.53125 0
0.28125 0.5 0
0.3125 0.5 0
0.28125 0.53125 0
0.3125 0.53125 0
0.25 0.53125 0
0.28125 0.53125 0
0.25 0.5625 0
0.28125 0.5625 0
0.28125 0.53125 0
0.3125 0.53125 0
0.28125 0.5625 0
0.3125 0.5625 0
0.25 0.5625 0
0.28125 0.5625 0
0.25 0.59375 0
0.28125 0.59375 0
0.28125 0.5625 0
0.3125 0.5625 0
0.28125 0.59375 0
0.3125 0.59375 0
0.25 0.59375 0
0.28125 0.59375 0
0.25 0.625 0
0.28125 0.625 0
0.28125 0.59375 0
0.3125 0.59375 0
0.28125 0.625 0
0.3125 0.625 0
0.25 0.625 0
0.28125 0.625 0
0.25 0.65625 0
0.28125 0.65625 0
0.28125 0.625 0
0.3125 0.625 0
0.28125 0.65625 0
0.3125 0.65625 0
0.25 0.65625 0
0.28125 0.65625 0
0.25 0.6875 0
0.28125 0.6875 0
0.28125 0.65625 0
0.3125 0.65625 0
0.28125 0.6875 0
0.3125 0.6875 0
0.3125 0.625 0
0.34375 0.625 0
0.3125 0.65625 0
0.34375 0.65625 0
0.34375 0.625 0
0.375 0.625 0
0.34375 0.65625 0
0.375 0.65625 0
0.3125 0.65625 0
0.34375 0.65625 0
0.3125 0.6875 0
0.34375 0.6875 0
0.34375 0.65625 0
0.375 0.65625 0
0.34375 0.6875 0
0.375 0.6875 0
0.25 0.6875 0
0.28125 0.6875 0
0.25 0.71875 0
0.28125 0.71875 0
0.28125 0.6875 0
0.3125 0.6875 0
0.28125 0.71875 0
0.3125 0.71875 0
0.25 0.71875 0
0.28125 0.71875 0
0.25 0.75 0
0.28125 0.75 0
0.28125 0.71875 0
0.3125 0.71875 0
0.28125 0.75 0
0.3125 0.75 0
0.3125 0.6875 0
0.34375 0.6875 0
0.3125 0.71875 0
0.34375 0.71875 0
0.34375 0.6875 0
0.375 0.6875 0
0.34375 0.71875 0
0.375 0.71875 0
0.3125 0.71875 0
0.34375 0.71875 0
0.3125 0.75 0
0.34375 0.75 0
0.34375 0.71875 0
0.375 0.71875 0
0.34375 0.75 0
0.375 0.75 0
0.375 0.625 0
0.40625 0.625 0
0.375 0.65625 0
0.40625 0.65625 0
0.40625 0.625 0
0.4375 0.625 0
0.40625 0.65625 0
0.4375 0.65625 0
0.375 0.65625 0
0.40625 0.65625 0
0.375 0.6875 0
0.40625 0.6875 0
0.40625 0.65625 0
0.4375 0.65625 0
0.40625 0.6875 0
0.4375 0.6875 0
0.4375 0.625 0
0.46875 0.625 0
0.4375 0.65625 0
0.46875 0.65625 0
0.46875 0.625 0
0.5 0.625 0
0.46875 0.65625 0
0.5 0.65625 0
0.4375 0.65625 0
0.46875 0.65625 0
0.4375 0.6875 0
0.46875 0.6875 0
0.46875 0.65625 0
0.5 0.65625 0
0.46875 0.6875 0
0.5 0.6875 0
0.375 0.6875 0
0.40625 0.6875 0
0.375 0.71875 0
0.40625 0.71875 0
0.40625 0.6875 0
0.4375 0.6875 0
0.40625 0.71875 0
0.4375 0.71875 0
0.375 0.71875 0
0.40625 0.71875 0
0.375 0.75 0
0.40625 0.75 0
0.40625 0.71875 0
0.4375 0.71875 0
0.40625 0.75 0
0.4375 0.75 0
0.4375 0.6875 0
0.46875 0.6875 0
0.4375 0.71875 0
0.46875 0.71875 0
0.46875 0.6875 0
0.5 0.6875 0
0.46875 0.71875 0
0.5 0.71875 0
0.4375 0.71875 0
0.46875 0.71875 0
0.4375 0.75 0
0.46875 0.75 0
0.46875 0.71875 0
0.5 0.71875 0
0.46875 0.75 0
0.5 0.75 0
0 0.75 0
0.03125 0.75 0
0 0.78125 0
0.03125 0.78125 0
0.03125 0.75 0
0.0625 0.75 0
0.03125 0.78125 0
0.0625 0.78125 0
0 0.78125 0
0.03125 0.78125 0
0 0.8125 0
0.03125 0.8125 0
0.03125 0.78125 0
0.0625 0.78125 0
0.03125 0.8125 0
0.0625 0.8125 0
0.0625 0.75 0
0.09375 0.75 0
0.0625 0.78125 0
0.09375 0.78125 0
0.09375 0.75 0
0.125 0.75 0
0.09375 0.78125 0
0.125 0.78125 0
0.0625 0.78125 0
0.09375 0.78125 0
0.0625 0.8125 0
0.09375 0.8125 0
0.09375 0.78125 0
0.125 0.78125 0
0.09375 0.8125 0
0.125 0.8125 0
0.0625 0.8125 0
0.09375 0.8125 0
0.0625 0.84375 0
0.09375 0.84375 0
0.09375 0.8125 0
0.125 0.8125 0
0.09375 0.84375 0
0.125 0.84375 0
0.0625 0.84375 0
0.09375 0.84375 0
0.0625 0.875 0
0.09375 0.875 0
0.09375 0.84375 0
0.125 0.84375 0
0.09375 0.875 0
0.125 0.875 0
0.125 0.75 0
0.15625 0.75 0
0.125 0.78125 0
0.15625 0.78125 0
0.15625 0.75 0
0.1875 0.75 0
0.15625 0.78125 0
0.1875 0.78125 0
0.125 0.78125 0
0.15625 0.78125 0
0.125 0.8125 0
0.15625 0.8125 0
0.15625 0.78125 0
0.1875 0.78125 0
0.15625 0.8125 0
0.1875 0.8125 0
0.1875 0.75 0
0.21875 0.75 0
0.1875 0.78125 0
0.21875 0.78125 0
0.21875 0.75 0
0.25 0.75 0
0.21875 0.78125 0
0.25 0.78125 0
0.1875 0.78125 0
0.21875 0.78125 0
0.1875 0.8125 0
0.21875 0.8125 0
0.21875 0.78125 0
0.25 0.78125 0
0.21875 0.8125 0
0.25 0.8125 0
0.125 0.8125 0
0.15625 0.8125 0
0.125 0.84375 0
0.15625 0.84375 0
0.15625 0.8125 0
0.1875 0.8125 0
0.15625 0.84375 0
0.1875 0.84375 0
0.125 0.84375 0
0.15625 0.84375 0
0.125 0.875 0
0.15625 0.875 0
0.15625 0.84375 0
0.1875 0.84375 0
0.15625 0.875 0
0.1875 0.875 0
0.1875 0.8125 0
0.21875 0.8125 0
0.1875 0.84375 0
0.21875 0.84375 0
0.21875 0.8125 0
0.25 0.8125 0
0.21875 0.84375 0
0.25 0.84375 0
0.1875 0.84375 0
0.21875 0.84375 0
0.1875 0.875 0
0.21875 0.875 0
0.21875 0.84375 0
0.25 0.84375 0
0.21875 0.875 0
0.25 0.875 0
0.125 0.875 0
0.15625 0.875 0
0.125 0.90625 0
0.15625 0.90625 0
0.15625 0.875 0
0.1875 0.875 0
0.15625 0.90625 0
0.1875 0.90625 0
0.125 0.90625 0
0.15625 0.90625 0
0.125 0.9375 0
0.15625 0.9375 0
0.15625 0.90625 0
0.1875 0.90625 0
0.15625 0.9375 0
0.1875 0.9375 0
0.1875 0.875 0
0.21875 0.875 0
0.1875 0.90625 0
0.21875 0.90625 0
0.21875 0.875 0
0.25 0.875 0
0.21875 0.90625 0
0.25 0.90625 0
0.1875 0.90625 0
0.21875 0.90625 0
0.1875 0.9375 0
0.21875 0.9375 0
0.21875 0.90625 0
0.25 0.90625 0
0.21875 0.9375 0
0.25 0.9375 0
0.1875 0.9375 0
0.21875 0.9375 0
0.1875 0.96875 0
0.21875 0.96875 0
0.21875 0.9375 0
0.25 0.9375 0
0.21875 0.96875 0
0.25 0.96875 0
0.1875 0.96875 0
0.21875 0.96875 0
0.1875 1 0
0.21875 1 0
0.21875 0.96875 0
0.25 0.96875 0
0.21875 1 0
0.25 1 0
0.25 0.75 0
0.28125 0.75 0
0.25 0.78125 0
0.28125 0.78125 0
0.28125 0.75 0
0.3125 0.75 0
0.28125 0.78125 0
0.3125 0.78125 0
0.25 0.78125 0
0.28125 0.78125 0
0.25 0.8125 0
0.28125 0.8125 0
0.28125 0.78125 0
0.3125 0.78125 0
0.28125 0.8125 0
0.3125 0.8125 0
0.3125 0.75 0
0.34375 0.75 0
0.3125 0.78125 0
0.34375 0.78125 0
0.34375 0.75 0
0.375 0.75 0
0.34375 0.78125 0
0.375 0.78125 0
0.3125 0.78125 0
0.34375 0.78125 0
0.3125 0.8125 0
0.34375 0.8125 0
0.34375 0.78125 0
0.375 0.78125 0
0.34375 0.8125 0
0.375 0.8125 0
0.25 0.8125 0
0.28125 0.8125 0
0.25 0.84375 0
0.28125 0.84375 0
[...]
POINT_DATA 5152
SCALARS x_dis double 1
LOOKUP_TABLE default
0.000940185 0.000890025 0.000932606 0.000881896 0.000890025 0.000838913 0.000881896 0.000830253 0.000932606 0.000881896 0.000917387 0.000865679 0.000881896 0.000830253 0.000865679 0.000813103 0.000838913 0.000788202 0.000830253 0.000779016 0.000788202 0.000738882 0.000779016 0.000729158 0.000830253 0.000779016 0.000813103 0.000760878 0.000779016 0.000729158 0.000760878 0.000709884 0.000917387 0.000865679 0.000895039 0.000841932 0.000865679 0.000813103 0.000841932 0.000788073 0.000895039 0.000841932 0.000866448 0.000811614 0.000841932 0.000788073 0.000811614 0.000756205 0.000813103 0.000760878 0.000788073 0.000734487 0.000760878 0.000709884 0.000734487 0.000681898 0.000788073 0.000734487 0.000756205 0.000701002 0.000734487 0.000681898 0.000701002 0.000646544 0.000738882 0.000691725 0.000729158 0.000681432 0.000691725 0.000647384 0.000681432 0.000636456 0.000729158 0.000681432 0.000709884 0.000660775 0.000681432 0.000636456 0.000660775 0.000614042 0.000647384 0.000606461 0.000636456 0.000594772 0.000606461 0.000569558 0.000594772 0.000556879 0.000636456 0.000594772 0.000614042 0.000570049 0.000594772 0.000556879 0.000570049 0.000529023 0.000709884 0.000660775 0.000681898 0.000630812 0.000660775 0.000614042 0.000630812 0.000581553 0.000681898 0.000630812 0.000646544 0.000593174 0.000630812 0.000581553 0.000593174 0.000541057 0.000614042 0.000570049 0.000581553 0.000534271 0.000570049 0.000529023 0.000534271 0.000488903 0.000581553 0.000534271 0.000541057 0.000490165 0.000534271 0.000488903 0.000490165 0.000440245 0.000866448 0.000811614 0.000832799 0.000776004 0.000811614 0.000756205 0.000776004 0.000718872 0.000832799 0.000776004 0.00079549 0.000736597 0.000776004 0.000718872 0.000736597 0.000677663 0.000756205 0.000701002 0.000718872 0.000661923 0.000701002 0.000646544 0.000661923 0.000605508 0.000718872 0.000661923 0.000677663 0.000618954 0.000661923 0.000605508 0.000618954 0.000560649 0.00079549 0.000736597 0.000756041 0.000695009 0.000736597 0.000677663 0.000695009 0.000634275 0.000756041 0.000695009 0.000716008 0.000652888 0.000695009 0.000634275 0.000652888 0.000590414 0.000677663 0.000618954 0.000634275 0.000573881 0.000618954 0.000560649 0.000573881 0.00051386 0.000634275 0.000573881 0.000590414 0.000528466 0.000573881 0.00051386 0.000528466 0.000466959 0.000646544 0.000593174 0.000605508 0.000549821 0.000593174 0.000541057 0.000549821 0.000494903 0.000605508 0.000549821 0.000560649 0.000502823 0.000549821 0.000494903 0.000502823 0.000445434 0.000541057 0.000490165 0.000494903 0.00044062 0.000490165 0.000440245 0.00044062 0.000386652 0.000494903 0.00044062 0.000445434 0.000388315 0.00044062 0.000386652 0.000388315 0.000331169 0.000560649 0.000502823 0.00051386 0.000454197 0.000502823 0.000445434 0.000454197 0.000394813 0.00051386 0.000454197 0.000466959 0.000405816 0.000454197 0.000394813 0.000405816 0.000344943 0.000445434 0.000388315 0.000394813 0.000335551 0.000388315 0.000331169 0.000335551 0.000276188 0.000394813 0.000335551 0.000344943 0.000284222 0.000335551 0.000276188 0.000284222 0.000223518 0.000569558 0.000537321 0.000556879 0.000523238 0.000537321 0.000510493 0.000523238 0.000494269 0.000556879 0.000523238 0.000529023 0.000491016 0.000523238 0.000494269 0.000491016 0.000455767 0.000529023 0.000491016 0.000488903 0.000445101 0.000491016 0.000455767 0.000445101 0.000402113 0.000488903 0.000445101 0.000440245 0.000390769 0.000445101 0.000402113 0.000390769 0.00034092 0.000440245 0.000390769 0.000386652 0.000332478 0.000390769 0.00034092 0.000332478 0.000277362 0.000386652 0.000332478 0.000331169 0.000273584 0.000332478 0.000277362 0.000273584 0.000215101 0.00034092 0.000289269 0.000277362 0.0002205 0.000289269 0.00023456 0.0002205 0.000161076 0.000277362 0.0002205 0.000215101 0.000155309 0.0002205 0.000161076 0.000155309 9.41219e-05 0.000331169 0.000273584 0.000276188 0.000216472 0.000273584 0.000215101 0.000216472 0.000156191 0.000276188 0.000216472 0.000223518 0.000162726 0.000216472 0.000156191 0.000162726 0.000101832 0.000215101 0.000155309 0.000156191 9.53023e-05 0.000155309 9.41219e-05 9.53023e-05 3.41153e-05 0.000156191 9.53023e-05 0.000101832 4.10215e-05 9.53023e-05 3.41153e-05 4.10215e-05 -1.92057e-05 0.00023456 0.000175172 0.000161076 9.8987e-05 0.000175172 0.00011111 9.8987e-05 3.56182e-05 0.000161076 9.8987e-05 9.41219e-05 3.2136e-05 9.8987e-05 3.56182e-05 3.2136e-05 -2.89212e-05 0.00011111 4.60662e-05 3.56182e-05 -2.53473e-05 4.60662e-05 -1.14303e-05 -2.53473e-05 -7.82918e-05 3.56182e-05 -2.53473e-05 -2.89212e-05 -8.60759e-05 -2.53473e-05 -7.82918e-05 -8.60759e-05 -0.000135605 9.41219e-05 3.2136e-05 3.41153e-05 -2.64821e-05 3.2136e-05 -2.89212e-05 -2.64821e-05 -8.4879e-05 3.41153e-05 -2.64821e-05 -1.92057e-05 -7.79276e-05 -2.64821e-05 -8.4879e-05 -7.79276e-05 -0.000133771 -2.89212e-05 -8.60759e-05 -8.4879e-05 -0.000138805 -8.60759e-05 -0.000135605 -0.000138805 -0.000185737 -8.4879e-05 -0.000138805 -0.000133771 -0.000185022 -0.000138805 -0.000185737 -0.000185022 -0.00022991 0.000716008 0.000652888 0.000676911 0.000611802 0.000652888 0.000590414 0.000611802 0.000547707 0.000676911 0.000611802 0.000639848 0.000573156 0.000611802 0.000547707 0.000573156 0.000507586 0.000590414 0.000528466 0.000547707 0.000484368 0.000528466 0.000466959 0.000484368 0.000421621 0.000547707 0.000484368 0.000507586 0.000443054 0.000484368 0.000421621 0.000443054 0.000379312 0.000507586 0.000443054 0.000470969 0.000405678 0.000443054 0.000379312 0.000405678 0.000341285 0.000470969 0.000405678 0.000439375 0.000373466 0.000405678 0.000341285 0.000373466 0.000308544 0.000466959 0.000405816 0.000421621 0.000359344 0.000405816 0.000344943 0.000359344 0.000297449 0.000421621 0.000359344 0.000379312 0.000316223 0.000359344 0.000297449 0.000316223 0.00025369 0.000344943 0.000284222 0.000297449 0.000235854 0.000284222 0.000223518 0.000235854 0.000174508 0.000297449 0.000235854 0.00025369 0.000191676 0.000235854 0.000174508 0.000191676 0.000130187 0.000379312 0.000316223 0.000341285 0.000277662 0.000316223 0.00025369 0.000277662 0.000214791 0.000341285 0.000277662 0.000308544 0.000244653 0.000277662 0.000214791 0.000244653 0.000181672 0.00025369 0.000191676 0.000214791 0.000152675 0.000191676 0.000130187 0.000152675 9.13621e-05 0.000214791 0.000152675 0.000181672 0.000119651 0.000152675 9.13621e-05 0.000119651 5.87001e-05 0.000308544 0.000244653 0.000281823 0.000217993 0.000244653 0.000181672 0.000217993 0.000155077 0.000281823 0.000217993 0.000262153 0.000198435 0.000217993 0.000155077 0.000198435 0.00013589 0.000181672 0.000119651 0.000155077 9.33093e-05 0.000119651 5.87001e-05 9.33093e-05 3.27042e-05 0.000155077 9.33093e-05 0.00013589 7.38098e-05 9.33093e-05 3.27042e-05 7.38098e-05 1.40123e-05 0.00013589 7.38098e-05 0.000123166 6.30864e-05 7.38098e-05 1.40123e-05 6.30864e-05 3.0731e-06 0.000123166 6.30864e-05 0.000124732 6.10613e-05 6.30864e-05 3.0731e-06 6.10613e-05 -4.0054e-07 0.000223518 0.000162726 0.000174508 0.000113414 0.000162726 0.000101832 0.000113414 5.26895e-05 0.000174508 0.000113414 0.000130187 6.92979e-05 0.000113414 5.26895e-05 6.92979e-05 9.19601e-06 0.000101832 4.10215e-05 5.26895e-05 -7.3641e-06 4.10215e-05 -1.92057e-05 -7.3641e-06 -6.61918e-05 5.26895e-05 -7.3641e-06 9.19601e-06 -4.97749e-05 -7.3641e-06 -6.61918e-05 -4.97749e-05 -0.000107074 0.000130187 6.92979e-05 9.13621e-05 3.09672e-05 6.92979e-05 9.19601e-06 3.09672e-05 -2.83041e-05 9.13621e-05 3.09672e-05 5.87001e-05 -1.09147e-06 3.09672e-05 -2.83041e-05 -1.09147e-06 -5.9492e-05 9.19601e-06 -4.97749e-05 -2.83041e-05 -8.61025e-05 -4.97749e-05 -0.000107074 -8.61025e-05 -0.000141932 -2.83041e-05 -8.61025e-05 -5.9492e-05 -0.000116188 -8.61025e-05 -0.000141932 -0.000116188 -0.000170722 -1.92057e-05 -7.79276e-05 -6.61918e-05 -0.000122943 -7.79276e-05 -0.000133771 -0.000122943 -0.000176488 -6.61918e-05 -0.000122943 -0.000107074 -0.000161956 -0.000122943 -0.000176488 -0.000161956 -0.000213503 -0.000133771 -0.000185022 -0.000176488 -0.000225526 -0.000185022 -0.00022991 -0.000225526 -0.00026877 -0.000176488 -0.000225526 -0.000213503 -0.00026071 -0.000225526 -0.00026877 -0.00026071 -0.000302616 -0.000107074 -0.000161956 -0.000141932 -0.000195151 -0.000161956 -0.000213503 -0.000195151 -0.000245008 -0.000141932 -0.000195151 -0.000170722 -0.000222539 -0.000195151 -0.000245008 -0.000222539 -0.000271018 -0.000213503 -0.00026071 -0.000245008 -0.000290714 -0.00026071 -0.000302616 -0.000290714 -0.000331531 -0.000245008 -0.000290714 -0.000271018 -0.000315522 -0.000290714 -0.000331531 -0.000315522 -0.000355465 5.87001e-05 -1.09147e-06 3.27042e-05 -2.64333e-05 -1.09147e-06 -5.9492e-05 -2.64333e-05 -8.40693e-05 3.27042e-05 -2.64333e-05 1.40123e-05 -4.46865e-05 -2.64333e-05 -8.40693e-05 -4.46865e-05 -0.000101778 -5.9492e-05 -0.000116188 -8.40693e-05 -0.000139841 -0.000116188 -0.000170722 -0.000139841 -0.000193326 -8.40693e-05 -0.000139841 -0.000101778 -0.000156878 -0.000139841 -0.000193326 -0.000156878 -0.0002096 1.40123e-05 -4.46865e-05 3.0731e-06 -5.56188e-05 -4.46865e-05 -0.000101778 -5.56188e-05 -0.000112445 3.0731e-06 -5.56188e-05 -4.0054e-07 -5.92284e-05 -5.56188e-05 -0.000112445 -5.92284e-05 -0.000116004 -0.000101778 -0.000156878 -0.000112445 -0.000167154 -0.000156878 -0.0002096 -0.000167154 -0.00021942 -0.000112445 -0.000167154 -0.000116004 -0.000170588 -0.000167154 -0.00021942 -0.000170588 -0.000222703 -0.000170722 -0.000222539 -0.000193326 -0.000244036 -0.000222539 -0.000271018 -0.000244036 -0.000291446 -0.000193326 -0.000244036 -0.0002096 -0.000259515 -0.000244036 -0.000291446 -0.000259515 -0.000306165 -0.000271018 -0.000315522 -0.000291446 -0.000335027 -0.000315522 -0.000355465 -0.000335027 -0.000374299 -0.000291446 -0.000335027 -0.000306165 -0.000349092 -0.000335027 -0.000374299 -0.000349092 -0.000387888 -0.0002096 -0.000259515 -0.00021942 -0.000268858 -0.000259515 -0.000306165 -0.000268858 -0.000315053 -0.00021942 -0.000268858 -0.000222703 -0.000271982 -0.000268858 -0.000315053 -0.000271982 -0.000318026 -0.000306165 -0.000349092 -0.000315053 -0.000357591 -0.000349092 -0.000387888 -0.000357591 -0.000396101 -0.000315053 -0.000357591 -0.000318026 -0.000360434 -0.000357591 -0.000396101 -0.000360434 -0.000398849 0.00056993 0.000504143 0.000314532 0.000309242 0.000504143 0.000444524 0.000309242 0.000291404 0.000314532 0.000309242 0.000133556 0.000143963 0.000309242 0.000291404 0.000143963 0.000147587 0.000133556 0.000143963 1.54117e-05 1.86159e-05 0.000143963 0.000147587 1.86159e-05 2.61097e-05 1.54117e-05 1.86159e-05 -7.21566e-05 -7.67183e-05 1.86159e-05 2.61097e-05 -7.67183e-05 -7.28048e-05 0.000444524 0.00039272 0.000291404 0.000269035 0.00039272 0.000348543 0.000269035 0.000246102 0.000291404 0.000269035 0.000147587 0.000144897 0.000269035 0.000246102 0.000144897 0.000138325 0.000348543 0.000311571 0.000246102 0.000224693 0.000311571 0.000281392 0.000224693 0.000205876 0.000246102 0.000224693 0.000138325 0.000129939 0.000224693 0.000205876 0.000129939 0.000121202 0.000147587 0.000144897 2.61097e-05 3.18203e-05 0.000144897 0.000138325 3.18203e-05 3.46178e-05 2.61097e-05 3.18203e-05 -7.28048e-05 -6.6219e-05 3.18203e-05 3.46178e-05 -6.6219e-05 -5.99841e-05 0.000138325 0.000129939 3.46178e-05 3.4981e-05 0.000129939 0.000121202 3.4981e-05 3.37508e-05 3.46178e-05 3.4981e-05 -5.99841e-05 -5.51465e-05 3.4981e-05 3.37508e-05 -5.51465e-05 -5.18028e-05 -1.14303e-05 -5.18679e-05 -7.82918e-05 -0.000117839 -5.18679e-05 -7.21566e-05 -0.000117839 -0.000141984 -7.82918e-05 -0.000117839 -0.000135605 -0.000174278 -0.000117839 -0.000141984 -0.000174278 -0.000200656 -7.21566e-05 -7.67183e-05 -0.000141984 -0.000152602 -7.67183e-05 -7.28048e-05 -0.000152602 -0.00015374 -0.000141984 -0.000152602 -0.000200656 -0.00021553 -0.000152602 -0.00015374 -0.00021553 -0.000221325 -0.000135605 -0.000174278 -0.000185737 -0.000223571 -0.000174278 -0.000200656 -0.000223571 -0.000251284 -0.000185737 -0.000223571 -0.00022991 -0.000266995 -0.000223571 -0.000251284 -0.000266995 -0.000295533 -0.000200656 -0.00021553 -0.000251284 -0.000269211 -0.00021553 -0.000221325 -0.000269211 -0.000278822 -0.000251284 -0.000269211 -0.000295533 -0.000315658 -0.000269211 -0.000278822 -0.000315658 -0.000328293 -7.28048e-05 -6.6219e-05 -0.00015374 -0.000149781 -6.6219e-05 -5.99841e-05 -0.000149781 -0.00014388 -0.00015374 -0.000149781 -0.000221325 -0.000221039 -0.000149781 -0.00014388 -0.000221039 -0.000217349 -5.99841e-05 -5.51465e-05 -0.00014388 -0.000137835 -5.51465e-05 -5.18028e-05 -0.000137835 -0.000132491 -0.00014388 -0.000137835 -0.000217349 -0.000212163 -0.000137835 -0.000132491 -0.000212163 -0.000206702 -0.000221325 -0.000221039 -0.000278822 -0.000282179 -0.000221039 -0.000217349 -0.000282179 -0.00028137 -0.000278822 -0.000282179 -0.000328293 -0.000334871 -0.000282179 -0.00028137 -0.000334871 -0.000336976 -0.000217349 -0.000212163 -0.00028137 -0.000278125 -0.000212163 -0.000206702 -0.000278125 -0.000273742 -0.00028137 -0.000278125 -0.000336976 -0.00033609 -0.000278125 -0.000273742 -0.00033609 -0.000333414 0.000281392 0.000257606 0.000205876 0.000190162 0.000257606 0.000239796 0.000190162 0.000177725 0.000205876 0.000190162 0.000121202 0.000113061 0.000190162 0.000177725 0.000113061 0.000106071 0.000239796 0.000227474 0.000177725 0.000168498 0.000227474 0.000220007 0.000168498 0.000162215 0.000177725 0.000168498 0.000106071 0.000100511 0.000168498 0.000162215 0.000100511 9.64565e-05 0.000121202 0.000113061 3.37508e-05 3.17073e-05 0.000113061 0.000106071 3.17073e-05 2.94525e-05 3.37508e-05 3.17073e-05 -5.18028e-05 -4.9677e-05 3.17073e-05 2.94525e-05 -4.9677e-05 -4.83911e-05 0.000106071 0.000100511 2.94525e-05 2.74068e-05 0.000100511 9.64565e-05 2.74068e-05 2.58439e-05 2.94525e-05 2.74068e-05 -4.83911e-05 -4.75819e-05 2.74068e-05 2.58439e-05 -4.75819e-05 -4.69399e-05 0.000220007 0.000216543 0.000162215 0.000158435 0.000216543 0.000215919 0.000158435 0.000156563 0.000162215 0.000158435 9.64565e-05 9.38408e-05 0.000158435 0.000156563 9.38408e-05 9.24816e-05 0.000215919 0.000216606 0.000156563 0.000155882 0.000216606 0.000216943 0.000155882 0.000155467 0.000156563 0.000155882 9.24816e-05 9.20302e-05 0.000155882 0.000155467 9.20302e-05 9.16209e-05 9.64565e-05 9.38408e-05 2.58439e-05 2.49224e-05 9.38408e-05 9.24816e-05 2.49224e-05 2.46821e-05 2.58439e-05 2.49224e-05 -4.69399e-05 -4.62226e-05 2.49224e-05 2.46821e-05 -4.62226e-05 -4.52861e-05 9.24816e-05 9.20302e-05 2.46821e-05 2.49465e-05 9.20302e-05 9.16209e-05 2.49465e-05 2.51017e-05 2.46821e-05 2.49465e-05 -4.52861e-05 -4.41561e-05 2.49465e-05 2.51017e-05 -4.41561e-05 -4.31248e-05 -5.18028e-05 -4.9677e-05 -0.000132491 -0.000128096 -4.9677e-05 -4.83911e-05 -0.000128096 -0.000124607 -0.000132491 -0.000128096 -0.000206702 -0.000201611 -0.000128096 -0.000124607 -0.000201611 -0.000197139 -4.83911e-05 -4.75819e-05 -0.000124607 -0.000121839 -4.75819e-05 -4.69399e-05 -0.000121839 -0.000119561 -0.000124607 -0.000121839 -0.000197139 -0.000193319 -0.000121839 -0.000119561 -0.000193319 -0.000190047 -0.000206702 -0.000201611 -0.000273742 -0.000269073 -0.000201611 -0.000197139 -0.000269073 -0.000264584 -0.000273742 -0.000269073 -0.000333414 -0.000329864 -0.000269073 -0.000264584 -0.000329864 -0.000326027 -0.000197139 -0.000193319 -0.000264584 -0.000260485 -0.000193319 -0.000190047 -0.000260485 -0.000256803 -0.000264584 -0.000260485 -0.000326027 -0.000322228 -0.000260485 -0.000256803 -0.000322228 -0.000318596 -4.69399e-05 -4.62226e-05 -0.000119561 -0.000117542 -4.62226e-05 -4.52861e-05 -0.000117542 -0.000115592 -0.000119561 -0.000117542 -0.000190047 -0.000187151 -0.000117542 -0.000115592 -0.000187151 -0.000184427 -4.52861e-05 -4.41561e-05 -0.000115592 -0.000113599 -4.41561e-05 -4.31248e-05 -0.000113599 -0.000111546 -0.000115592 -0.000113599 -0.000184427 -0.000181651 -0.000113599 -0.000111546 -0.000181651 -0.000178558 -0.000190047 -0.000187151 -0.000256803 -0.000253435 -0.000187151 -0.000184427 -0.000253435 -0.000250183 -0.000256803 -0.000253435 -0.000318596 -0.000315092 -0.000253435 -0.000250183 -0.000315092 -0.000311529 -0.000184427 -0.000181651 -0.000250183 -0.000246743 -0.000181651 -0.000178558 -0.000246743 -0.000242678 -0.000250183 -0.000246743 -0.000311529 -0.000307556 -0.000246743 -0.000242678 -0.000307556 -0.000302635 -0.00022991 -0.000266995 -0.00026877 -0.000305195 -0.000266995 -0.000295533 -0.000305195 -0.00033425 -0.00026877 -0.000305195 -0.000302616 -0.000338464 -0.000305195 -0.00033425 -0.000338464 -0.000367834 -0.000295533 -0.000315658 -0.00033425 -0.000355973 -0.000315658 -0.000328293 -0.000355973 -0.000370969 -0.00033425 -0.000355973 -0.000367834 -0.000390724 -0.000355973 -0.000370969 -0.000390724 -0.000407545 -0.000302616 -0.000338464 -0.000331531 -0.000366879 -0.000338464 -0.000367834 -0.000366879 -0.000396432 -0.000331531 -0.000366879 -0.000355465 -0.000390393 -0.000366879 -0.000396432 -0.000390393 -0.000420042 -0.000367834 -0.000390724 -0.000396432 -0.00042017 -0.000390724 -0.000407545 -0.00042017 -0.000438384 -0.000396432 -0.00042017 -0.000420042 -0.000444387 -0.00042017 -0.000438384 -0.000444387 -0.000463643 -0.000328293 -0.000334871 -0.000370969 -0.000380251 -0.000334871 -0.000336976 -0.000380251 -0.00038502 -0.000370969 -0.000380251 -0.000407545 -0.000419032 -0.000380251 -0.00038502 -0.000419032 -0.000426098 -0.000336976 -0.00033609 -0.00038502 -0.000386495 -0.00033609 -0.000333414 -0.000386495 -0.000385766 -0.00038502 -0.000386495 -0.000426098 -0.000429743 -0.000386495 -0.000385766 -0.000429743 -0.000430921 -0.000407545 -0.000419032 -0.000438384 -0.000451622 -0.000419032 -0.000426098 -0.000451622 -0.000460595 -0.000438384 -0.000451622 -0.000463643 -0.000478234 -0.000451622 -0.000460595 -0.000478234 -0.000488725 -0.000426098 -0.000429743 -0.000460595 -0.000466119 -0.000429743 -0.000430921 -0.000466119 -0.00046902 -0.000460595 -0.000466119 -0.000488725 -0.000495796 -0.000466119 -0.00046902 -0.000495796 -0.000500159 -0.000355465 -0.000390393 -0.000374299 -0.000408889 -0.000390393 -0.000420042 -0.000408889 -0.000438582 -0.000374299 -0.000408889 -0.000387888 -0.000422231 -0.000408889 -0.000438582 -0.000422231 -0.000451938 -0.000420042 -0.000444387 -0.000438582 -0.000463348 -0.000444387 -0.000463643 -0.000463348 -0.000483357 -0.000438582 -0.000463348 -0.000451938 -0.00047698 -0.000463348 -0.000483357 -0.00047698 -0.000497497 -0.000387888 -0.000422231 -0.000396101 -0.000430294 -0.000422231 -0.000451938 -0.000430294 -0.000460002 -0.000396101 -0.000430294 -0.000398849 -0.000432992 -0.000430294 -0.000460002 -0.000432992 -0.0004627 -0.000451938 -0.00047698 -0.000460002 -0.0004852 -0.00047698 -0.000497497 -0.0004852 -0.000506011 -0.000460002 -0.0004852 -0.0004627 -0.000487947 -0.0004852 -0.000506011 -0.000487947 -0.000508854 -0.000463643 -0.000478234 -0.000483357 -0.000498949 -0.000478234 -0.000488725 -0.000498949 -0.000510591 -0.000483357 -0.000498949 -0.000497497 -0.000513778 -0.000498949 -0.000510591 -0.000513778 -0.000526224 -0.000488725 -0.000495796 -0.000510591 -0.000518862 -0.000495796 -0.000500159 -0.000518862 -0.000524385 -0.000510591 -0.000518862 -0.000526224 -0.000535346 -0.000518862 -0.000524385 -0.000535346 -0.000541705 -0.000497497 -0.000513778 -0.000506011 -0.000522694 -0.000513778 -0.000526224 -0.000522694 -0.000535615 -0.000506011 -0.000522694 -0.000508854 -0.00052567 -0.000522694 -0.000535615 -0.00052567 -0.000538748 -0.000526224 -0.000535346 -0.000535615 -0.000545245 -0.000535346 -0.000541705 -0.000545245 -0.000552108 -0.000535615 -0.000545245 -0.000538748 -0.000548547 -0.000545245 -0.000552108 -0.000548547 -0.000555578 -0.000333414 -0.000329864 -0.000385766 -0.000383688 -0.000329864 -0.000326027 -0.000383688 -0.000380896 -0.000385766 -0.000383688 -0.000430921 -0.00043042 -0.000383688 -0.000380896 -0.00043042 -0.000428841 -0.000326027 -0.000322228 -0.000380896 -0.000377774 -0.000322228 -0.000318596 -0.000377774 -0.000374513 -0.000380896 -0.000377774 -0.000428841 -0.000426594 -0.000377774 -0.000374513 -0.000426594 -0.000423892 -0.000430921 -0.00043042 -0.00046902 -0.000470011 -0.00043042 -