# vtk DataFile Version 3.0
#This file was generated by the deal.II library on 2022/11/17 at 0:17:20
ASCII
DATASET UNSTRUCTURED_GRID

POINTS 4288 double
0 0.5 0
0.03125 0.5 0
0 0.53125 0
0.03125 0.53125 0
0.03125 0.5 0
0.0625 0.5 0
0.03125 0.53125 0
0.0625 0.53125 0
0 0.53125 0
0.03125 0.53125 0
0 0.5625 0
0.03125 0.5625 0
0.03125 0.53125 0
0.0625 0.53125 0
0.03125 0.5625 0
0.0625 0.5625 0
0.0625 0.5 0
0.09375 0.5 0
0.0625 0.53125 0
0.09375 0.53125 0
0.09375 0.5 0
0.125 0.5 0
0.09375 0.53125 0
0.125 0.53125 0
0.0625 0.53125 0
0.09375 0.53125 0
0.0625 0.5625 0
0.09375 0.5625 0
0.09375 0.53125 0
0.125 0.53125 0
0.09375 0.5625 0
0.125 0.5625 0
0 0.5625 0
0.03125 0.5625 0
0 0.59375 0
0.03125 0.59375 0
0.03125 0.5625 0
0.0625 0.5625 0
0.03125 0.59375 0
0.0625 0.59375 0
0 0.59375 0
0.03125 0.59375 0
0 0.625 0
0.03125 0.625 0
0.03125 0.59375 0
0.0625 0.59375 0
0.03125 0.625 0
0.0625 0.625 0
0.0625 0.5625 0
0.09375 0.5625 0
0.0625 0.59375 0
0.09375 0.59375 0
0.09375 0.5625 0
0.125 0.5625 0
0.09375 0.59375 0
0.125 0.59375 0
0.0625 0.59375 0
0.09375 0.59375 0
0.0625 0.625 0
0.09375 0.625 0
0.09375 0.59375 0
0.125 0.59375 0
0.09375 0.625 0
0.125 0.625 0
0.125 0.5 0
0.15625 0.5 0
0.125 0.53125 0
0.15625 0.53125 0
0.15625 0.5 0
0.1875 0.5 0
0.15625 0.53125 0
0.1875 0.53125 0
0.125 0.53125 0
0.15625 0.53125 0
0.125 0.5625 0
0.15625 0.5625 0
0.15625 0.53125 0
0.1875 0.53125 0
0.15625 0.5625 0
0.1875 0.5625 0
0.1875 0.5 0
0.21875 0.5 0
0.1875 0.53125 0
0.21875 0.53125 0
0.21875 0.5 0
0.25 0.5 0
0.21875 0.53125 0
0.25 0.53125 0
0.1875 0.53125 0
0.21875 0.53125 0
0.1875 0.5625 0
0.21875 0.5625 0
0.21875 0.53125 0
0.25 0.53125 0
0.21875 0.5625 0
0.25 0.5625 0
0.125 0.5625 0
0.15625 0.5625 0
0.125 0.59375 0
0.15625 0.59375 0
0.15625 0.5625 0
0.1875 0.5625 0
0.15625 0.59375 0
0.1875 0.59375 0
0.125 0.59375 0
0.15625 0.59375 0
0.125 0.625 0
0.15625 0.625 0
0.15625 0.59375 0
0.1875 0.59375 0
0.15625 0.625 0
0.1875 0.625 0
0.1875 0.5625 0
0.21875 0.5625 0
0.1875 0.59375 0
0.21875 0.59375 0
0.21875 0.5625 0
0.25 0.5625 0
0.21875 0.59375 0
0.25 0.59375 0
0.1875 0.59375 0
0.21875 0.59375 0
0.1875 0.625 0
0.21875 0.625 0
0.21875 0.59375 0
0.25 0.59375 0
0.21875 0.625 0
0.25 0.625 0
0 0.625 0
0.03125 0.625 0
0 0.65625 0
0.03125 0.65625 0
0.03125 0.625 0
0.0625 0.625 0
0.03125 0.65625 0
0.0625 0.65625 0
0 0.65625 0
0.03125 0.65625 0
0 0.6875 0
0.03125 0.6875 0
0.03125 0.65625 0
0.0625 0.65625 0
0.03125 0.6875 0
0.0625 0.6875 0
0.0625 0.625 0
0.09375 0.625 0
0.0625 0.65625 0
0.09375 0.65625 0
0.09375 0.625 0
0.125 0.625 0
0.09375 0.65625 0
0.125 0.65625 0
0.0625 0.65625 0
0.09375 0.65625 0
0.0625 0.6875 0
0.09375 0.6875 0
0.09375 0.65625 0
0.125 0.65625 0
0.09375 0.6875 0
0.125 0.6875 0
0 0.6875 0
0.03125 0.6875 0
0 0.71875 0
0.03125 0.71875 0
0.03125 0.6875 0
0.0625 0.6875 0
0.03125 0.71875 0
0.0625 0.71875 0
0 0.71875 0
0.03125 0.71875 0
0 0.75 0
0.03125 0.75 0
0.03125 0.71875 0
0.0625 0.71875 0
0.03125 0.75 0
0.0625 0.75 0
0.0625 0.6875 0
0.09375 0.6875 0
0.0625 0.71875 0
0.09375 0.71875 0
0.09375 0.6875 0
0.125 0.6875 0
0.09375 0.71875 0
0.125 0.71875 0
0.0625 0.71875 0
0.09375 0.71875 0
0.0625 0.75 0
0.09375 0.75 0
0.09375 0.71875 0
0.125 0.71875 0
0.09375 0.75 0
0.125 0.75 0
0.125 0.625 0
0.15625 0.625 0
0.125 0.65625 0
0.15625 0.65625 0
0.15625 0.625 0
0.1875 0.625 0
0.15625 0.65625 0
0.1875 0.65625 0
0.125 0.65625 0
0.15625 0.65625 0
0.125 0.6875 0
0.15625 0.6875 0
0.15625 0.65625 0
0.1875 0.65625 0
0.15625 0.6875 0
0.1875 0.6875 0
0.1875 0.625 0
0.21875 0.625 0
0.1875 0.65625 0
0.21875 0.65625 0
0.21875 0.625 0
0.25 0.625 0
0.21875 0.65625 0
0.25 0.65625 0
0.1875 0.65625 0
0.21875 0.65625 0
0.1875 0.6875 0
0.21875 0.6875 0
0.21875 0.65625 0
0.25 0.65625 0
0.21875 0.6875 0
0.25 0.6875 0
0.125 0.6875 0
0.15625 0.6875 0
0.125 0.71875 0
0.15625 0.71875 0
0.15625 0.6875 0
0.1875 0.6875 0
0.15625 0.71875 0
0.1875 0.71875 0
0.125 0.71875 0
0.15625 0.71875 0
0.125 0.75 0
0.15625 0.75 0
0.15625 0.71875 0
0.1875 0.71875 0
0.15625 0.75 0
0.1875 0.75 0
0.1875 0.6875 0
0.21875 0.6875 0
0.1875 0.71875 0
0.21875 0.71875 0
0.21875 0.6875 0
0.25 0.6875 0
0.21875 0.71875 0
0.25 0.71875 0
0.1875 0.71875 0
0.21875 0.71875 0
0.1875 0.75 0
0.21875 0.75 0
0.21875 0.71875 0
0.25 0.71875 0
0.21875 0.75 0
0.25 0.75 0
0.25 0.5 0
0.28125 0.5 0
0.25 0.53125 0
0.28125 0.53125 0
0.28125 0.5 0
0.3125 0.5 0
0.28125 0.53125 0
0.3125 0.53125 0
0.25 0.53125 0
0.28125 0.53125 0
0.25 0.5625 0
0.28125 0.5625 0
0.28125 0.53125 0
0.3125 0.53125 0
0.28125 0.5625 0
0.3125 0.5625 0
0.3125 0.5 0
0.34375 0.5 0
0.3125 0.53125 0
0.34375 0.53125 0
0.34375 0.5 0
0.375 0.5 0
0.34375 0.53125 0
0.375 0.53125 0
0.3125 0.53125 0
0.34375 0.53125 0
0.3125 0.5625 0
0.34375 0.5625 0
0.34375 0.53125 0
0.375 0.53125 0
0.34375 0.5625 0
0.375 0.5625 0
0.25 0.5625 0
0.28125 0.5625 0
0.25 0.59375 0
0.28125 0.59375 0
0.28125 0.5625 0
0.3125 0.5625 0
0.28125 0.59375 0
0.3125 0.59375 0
0.25 0.59375 0
0.28125 0.59375 0
0.25 0.625 0
0.28125 0.625 0
0.28125 0.59375 0
0.3125 0.59375 0
0.28125 0.625 0
0.3125 0.625 0
0.3125 0.5625 0
0.34375 0.5625 0
0.3125 0.59375 0
0.34375 0.59375 0
0.34375 0.5625 0
0.375 0.5625 0
0.34375 0.59375 0
0.375 0.59375 0
0.3125 0.59375 0
0.34375 0.59375 0
0.3125 0.625 0
0.34375 0.625 0
0.34375 0.59375 0
0.375 0.59375 0
0.34375 0.625 0
0.375 0.625 0
0.375 0.5 0
0.40625 0.5 0
0.375 0.53125 0
0.40625 0.53125 0
0.40625 0.5 0
0.4375 0.5 0
0.40625 0.53125 0
0.4375 0.53125 0
0.375 0.53125 0
0.40625 0.53125 0
0.375 0.5625 0
0.40625 0.5625 0
0.40625 0.53125 0
0.4375 0.53125 0
0.40625 0.5625 0
0.4375 0.5625 0
0.375 0.5625 0
0.40625 0.5625 0
0.375 0.59375 0
0.40625 0.59375 0
0.40625 0.5625 0
0.4375 0.5625 0
0.40625 0.59375 0
0.4375 0.59375 0
0.375 0.59375 0
0.40625 0.59375 0
0.375 0.625 0
0.40625 0.625 0
0.40625 0.59375 0
0.4375 0.59375 0
0.40625 0.625 0
0.4375 0.625 0
0.4375 0.5625 0
0.46875 0.5625 0
0.4375 0.59375 0
0.46875 0.59375 0
0.46875 0.5625 0
0.5 0.5625 0
0.46875 0.59375 0
0.5 0.59375 0
0.4375 0.59375 0
0.46875 0.59375 0
0.4375 0.625 0
0.46875 0.625 0
0.46875 0.59375 0
0.5 0.59375 0
0.46875 0.625 0
0.5 0.625 0
0.25 0.625 0
0.28125 0.625 0
0.25 0.65625 0
0.28125 0.65625 0
0.28125 0.625 0
0.3125 0.625 0
0.28125 0.65625 0
0.3125 0.65625 0
0.25 0.65625 0
0.28125 0.65625 0
0.25 0.6875 0
0.28125 0.6875 0
0.28125 0.65625 0
0.3125 0.65625 0
0.28125 0.6875 0
0.3125 0.6875 0
0.3125 0.625 0
0.34375 0.625 0
0.3125 0.65625 0
0.34375 0.65625 0
0.34375 0.625 0
0.375 0.625 0
0.34375 0.65625 0
0.375 0.65625 0
0.3125 0.65625 0
0.34375 0.65625 0
0.3125 0.6875 0
0.34375 0.6875 0
0.34375 0.65625 0
0.375 0.65625 0
0.34375 0.6875 0
0.375 0.6875 0
0.25 0.6875 0
0.28125 0.6875 0
0.25 0.71875 0
0.28125 0.71875 0
0.28125 0.6875 0
0.3125 0.6875 0
0.28125 0.71875 0
0.3125 0.71875 0
0.25 0.71875 0
0.28125 0.71875 0
0.25 0.75 0
0.28125 0.75 0
0.28125 0.71875 0
0.3125 0.71875 0
0.28125 0.75 0
0.3125 0.75 0
0.3125 0.6875 0
0.34375 0.6875 0
0.3125 0.71875 0
0.34375 0.71875 0
0.34375 0.6875 0
0.375 0.6875 0
0.34375 0.71875 0
0.375 0.71875 0
0.3125 0.71875 0
0.34375 0.71875 0
0.3125 0.75 0
0.34375 0.75 0
0.34375 0.71875 0
0.375 0.71875 0
0.34375 0.75 0
0.375 0.75 0
0.375 0.625 0
0.40625 0.625 0
0.375 0.65625 0
0.40625 0.65625 0
0.40625 0.625 0
0.4375 0.625 0
0.40625 0.65625 0
0.4375 0.65625 0
0.375 0.65625 0
0.40625 0.65625 0
0.375 0.6875 0
0.40625 0.6875 0
0.40625 0.65625 0
0.4375 0.65625 0
0.40625 0.6875 0
0.4375 0.6875 0
0.4375 0.625 0
0.46875 0.625 0
0.4375 0.65625 0
0.46875 0.65625 0
0.46875 0.625 0
0.5 0.625 0
0.46875 0.65625 0
0.5 0.65625 0
0.4375 0.65625 0
0.46875 0.65625 0
0.4375 0.6875 0
0.46875 0.6875 0
0.46875 0.65625 0
0.5 0.65625 0
0.46875 0.6875 0
0.5 0.6875 0
0.375 0.6875 0
0.40625 0.6875 0
0.375 0.71875 0
0.40625 0.71875 0
0.40625 0.6875 0
0.4375 0.6875 0
0.40625 0.71875 0
0.4375 0.71875 0
0.375 0.71875 0
0.40625 0.71875 0
0.375 0.75 0
0.40625 0.75 0
0.40625 0.71875 0
0.4375 0.71875 0
0.40625 0.75 0
0.4375 0.75 0
0.4375 0.6875 0
0.46875 0.6875 0
0.4375 0.71875 0
0.46875 0.71875 0
0.46875 0.6875 0
0.5 0.6875 0
0.46875 0.71875 0
0.5 0.71875 0
0.4375 0.71875 0
0.46875 0.71875 0
0.4375 0.75 0
0.46875 0.75 0
0.46875 0.71875 0
0.5 0.71875 0
0.46875 0.75 0
0.5 0.75 0
0 0.75 0
0.03125 0.75 0
0 0.78125 0
0.03125 0.78125 0
0.03125 0.75 0
0.0625 0.75 0
0.03125 0.78125 0
0.0625 0.78125 0
0 0.78125 0
0.03125 0.78125 0
0 0.8125 0
0.03125 0.8125 0
0.03125 0.78125 0
0.0625 0.78125 0
0.03125 0.8125 0
0.0625 0.8125 0
0.0625 0.75 0
0.09375 0.75 0
0.0625 0.78125 0
0.09375 0.78125 0
0.09375 0.75 0
0.125 0.75 0
0.09375 0.78125 0
0.125 0.78125 0
0.0625 0.78125 0
0.09375 0.78125 0
0.0625 0.8125 0
0.09375 0.8125 0
0.09375 0.78125 0
0.125 0.78125 0
0.09375 0.8125 0
0.125 0.8125 0
0 0.8125 0
0.03125 0.8125 0
0 0.84375 0
0.03125 0.84375 0
0.03125 0.8125 0
0.0625 0.8125 0
0.03125 0.84375 0
0.0625 0.84375 0
0 0.84375 0
0.03125 0.84375 0
0 0.875 0
0.03125 0.875 0
0.03125 0.84375 0
0.0625 0.84375 0
0.03125 0.875 0
0.0625 0.875 0
0.0625 0.8125 0
0.09375 0.8125 0
0.0625 0.84375 0
0.09375 0.84375 0
0.09375 0.8125 0
0.125 0.8125 0
0.09375 0.84375 0
0.125 0.84375 0
0.0625 0.84375 0
0.09375 0.84375 0
0.0625 0.875 0
0.09375 0.875 0
0.09375 0.84375 0
0.125 0.84375 0
0.09375 0.875 0
0.125 0.875 0
0.125 0.75 0
0.15625 0.75 0
0.125 0.78125 0
0.15625 0.78125 0
0.15625 0.75 0
0.1875 0.75 0
0.15625 0.78125 0
0.1875 0.78125 0
0.125 0.78125 0
0.15625 0.78125 0
0.125 0.8125 0
0.15625 0.8125 0
0.15625 0.78125 0
0.1875 0.78125 0
0.15625 0.8125 0
0.1875 0.8125 0
0.1875 0.75 0
0.21875 0.75 0
0.1875 0.78125 0
0.21875 0.78125 0
0.21875 0.75 0
0.25 0.75 0
0.21875 0.78125 0
0.25 0.78125 0
0.1875 0.78125 0
0.21875 0.78125 0
0.1875 0.8125 0
0.21875 0.8125 0
0.21875 0.78125 0
0.25 0.78125 0
0.21875 0.8125 0
0.25 0.8125 0
0.125 0.8125 0
0.15625 0.8125 0
0.125 0.84375 0
0.15625 0.84375 0
0.15625 0.8125 0
0.1875 0.8125 0
0.15625 0.84375 0
0.1875 0.84375 0
0.125 0.84375 0
0.15625 0.84375 0
0.125 0.875 0
0.15625 0.875 0
0.15625 0.84375 0
0.1875 0.84375 0
0.15625 0.875 0
0.1875 0.875 0
0.1875 0.8125 0
0.21875 0.8125 0
0.1875 0.84375 0
0.21875 0.84375 0
[...]
POINT_DATA 4288
SCALARS x_dis double 1
LOOKUP_TABLE default
0.000811378 0.000773143 0.000777892 0.000739286 0.000773143 0.000732859 0.000739286 0.000698992 0.000777892 0.000739286 0.000735606 0.000696155 0.000739286 0.000698992 0.000696155 0.000655456 0.000732859 0.000692068 0.000698992 0.000658526 0.000692068 0.000651962 0.000658526 0.000619052 0.000698992 0.000658526 0.000655456 0.000614901 0.000658526 0.000619052 0.000614901 0.000575549 0.000735606 0.000696155 0.000685397 0.000644674 0.000696155 0.000655456 0.000644674 0.000603217 0.000685397 0.000644674 0.00062852 0.00058617 0.000644674 0.000603217 0.00058617 0.000543673 0.000655456 0.000614901 0.000603217 0.000562219 0.000614901 0.000575549 0.000562219 0.000522568 0.000603217 0.000562219 0.000543673 0.000501964 0.000562219 0.000522568 0.000501964 0.000461727 0.000651962 0.000613507 0.000619052 0.0005815 0.000613507 0.000577518 0.0005815 0.000546637 0.000619052 0.0005815 0.000575549 0.000538219 0.0005815 0.000546637 0.000538219 0.000503547 0.000577518 0.000544724 0.000546637 0.000515121 0.000544724 0.000515806 0.000515121 0.000487533 0.000546637 0.000515121 0.000503547 0.000472021 0.000515121 0.000487533 0.000472021 0.000443986 0.000575549 0.000538219 0.000522568 0.000484923 0.000538219 0.000503547 0.000484923 0.000449745 0.000522568 0.000484923 0.000461727 0.000423436 0.000484923 0.000449745 0.000423436 0.000387366 0.000503547 0.000472021 0.000449745 0.000417306 0.000472021 0.000443986 0.000417306 0.000387681 0.000449745 0.000417306 0.000387366 0.000353593 0.000417306 0.000387681 0.000353593 0.000321968 0.00062852 0.00058617 0.000566539 0.000522296 0.00058617 0.000543673 0.000522296 0.000478557 0.000566539 0.000522296 0.000501242 0.000454939 0.000522296 0.000478557 0.000454939 0.000409843 0.000543673 0.000501964 0.000478557 0.000435973 0.000501964 0.000461727 0.000435973 0.000395006 0.000478557 0.000435973 0.000409843 0.000366314 0.000435973 0.000395006 0.000366314 0.000324597 0.000501242 0.000454939 0.000434554 0.000386121 0.000454939 0.000409843 0.000386121 0.00033963 0.000434554 0.000386121 0.000368447 0.000317903 0.000386121 0.00033963 0.000317903 0.000270049 0.000409843 0.000366314 0.00033963 0.000295167 0.000366314 0.000324597 0.000295167 0.000252772 0.00033963 0.000295167 0.000270049 0.00022472 0.000295167 0.000252772 0.00022472 0.000181773 0.000461727 0.000423436 0.000395006 0.000355944 0.000423436 0.000387366 0.000355944 0.000318897 0.000395006 0.000355944 0.000324597 0.000284807 0.000355944 0.000318897 0.000284807 0.00024692 0.000387366 0.000353593 0.000318897 0.000283786 0.000353593 0.000321968 0.000283786 0.000250333 0.000318897 0.000283786 0.00024692 0.000210757 0.000283786 0.000250333 0.000210757 0.000175986 0.000324597 0.000284807 0.000252772 0.000212409 0.000284807 0.00024692 0.000212409 0.000173947 0.000252772 0.000212409 0.000181773 0.000141042 0.000212409 0.000173947 0.000141042 0.000102313 0.00024692 0.000210757 0.000173947 0.00013715 0.000210757 0.000175986 0.00013715 0.000101687 0.000173947 0.00013715 0.000102313 6.53171e-05 0.00013715 0.000101687 6.53171e-05 2.9745e-05 0.000515806 0.00049144 0.000487533 0.0004644 0.00049144 0.000472344 0.0004644 0.000446195 0.000487533 0.0004644 0.000443986 0.00041962 0.0004644 0.000446195 0.00041962 0.000398867 0.000472344 0.000459359 0.000446195 0.000433324 0.000459359 0.000453621 0.000433324 0.000426067 0.000446195 0.000433324 0.000398867 0.000381275 0.000433324 0.000426067 0.000381275 0.000365624 0.000443986 0.00041962 0.000387681 0.000360694 0.00041962 0.000398867 0.000360694 0.000335827 0.000387681 0.000360694 0.000321968 0.000292082 0.000360694 0.000335827 0.000292082 0.000263199 0.000398867 0.000381275 0.000335827 0.000312042 0.000381275 0.000365624 0.000312042 0.000287488 0.000335827 0.000312042 0.000263199 0.000234182 0.000312042 0.000287488 0.000234182 0.000203488 0.000453621 0.000457182 0.000426067 0.000424302 0.000457182 0.00047505 0.000424302 0.000426277 0.000426067 0.000424302 0.000365624 0.000349 0.000424302 0.000426277 0.000349 0.00032493 0.000365624 0.000349 0.000287488 0.000259209 0.000349 0.00032493 0.000259209 0.000223626 0.000287488 0.000259209 0.000203488 0.000169466 0.000259209 0.000223626 0.000169466 0.000131604 0.00032493 0.000284509 0.000223626 0.000180872 0.000284509 0.000236822 0.000180872 0.000142171 0.000223626 0.000180872 0.000131604 9.29103e-05 0.000180872 0.000142171 9.29103e-05 6.08465e-05 0.000321968 0.000292082 0.000250333 0.000218039 0.000292082 0.000263199 0.000218039 0.000186184 0.000250333 0.000218039 0.000175986 0.000142132 0.000218039 0.000186184 0.000142132 0.000108623 0.000263199 0.000234182 0.000186184 0.000153871 0.000234182 0.000203488 0.000153871 0.000120207 0.000186184 0.000153871 0.000108623 7.48955e-05 0.000153871 0.000120207 7.48955e-05 4.06233e-05 0.000175986 0.000142132 0.000101687 6.71588e-05 0.000142132 0.000108623 6.71588e-05 3.31678e-05 0.000101687 6.71588e-05 2.9745e-05 -4.71742e-06 6.71588e-05 3.31678e-05 -4.71742e-06 -3.83243e-05 0.000108623 7.48955e-05 3.31678e-05 -5.65558e-07 7.48955e-05 4.06233e-05 -5.65558e-07 -3.40204e-05 3.31678e-05 -5.65558e-07 -3.83243e-05 -7.11707e-05 -5.65558e-07 -3.40204e-05 -7.11707e-05 -0.00010307 0.000203488 0.000169466 0.000120207 8.47738e-05 0.000169466 0.000131604 8.47738e-05 4.84787e-05 0.000120207 8.47738e-05 4.06233e-05 6.07564e-06 8.47738e-05 4.84787e-05 6.07564e-06 -2.74702e-05 0.000131604 9.29103e-05 4.84787e-05 1.43405e-05 9.29103e-05 6.08465e-05 1.43405e-05 -1.27142e-05 4.84787e-05 1.43405e-05 -2.74702e-05 -5.75432e-05 1.43405e-05 -1.27142e-05 -5.75432e-05 -8.09049e-05 4.06233e-05 6.07564e-06 -3.40204e-05 -6.66574e-05 6.07564e-06 -2.74702e-05 -6.66574e-05 -9.72514e-05 -3.40204e-05 -6.66574e-05 -0.00010307 -0.000133438 -6.66574e-05 -9.72514e-05 -0.000133438 -0.000161244 -2.74702e-05 -5.75432e-05 -9.72514e-05 -0.000123924 -5.75432e-05 -8.09049e-05 -0.000123924 -0.000144498 -9.72514e-05 -0.000123924 -0.000161244 -0.000185101 -0.000123924 -0.000144498 -0.000185101 -0.00020352 0.000368447 0.000317903 0.000304863 0.000252306 0.000317903 0.000270049 0.000252306 0.000203173 0.000304863 0.000252306 0.000245644 0.000191237 0.000252306 0.000203173 0.000191237 0.00014095 0.000270049 0.00022472 0.000203173 0.000157082 0.00022472 0.000181773 0.000157082 0.00011373 0.000203173 0.000157082 0.00014095 9.42176e-05 0.000157082 0.00011373 9.42176e-05 5.06009e-05 0.000245644 0.000191237 0.000192475 0.000136433 0.000191237 0.00014095 0.000136433 8.51447e-05 0.000192475 0.000136433 0.000146846 8.94235e-05 0.000136433 8.51447e-05 8.94235e-05 3.73028e-05 0.00014095 9.42176e-05 8.51447e-05 3.78945e-05 9.42176e-05 5.06009e-05 3.78945e-05 -5.86876e-06 8.51447e-05 3.78945e-05 3.73028e-05 -1.03479e-05 3.78945e-05 -5.86876e-06 -1.03479e-05 -5.41708e-05 0.000181773 0.000141042 0.00011373 7.28389e-05 0.000141042 0.000102313 7.28389e-05 3.41264e-05 0.00011373 7.28389e-05 5.06009e-05 9.7254e-06 7.28389e-05 3.41264e-05 9.7254e-06 -2.87485e-05 0.000102313 6.53171e-05 3.41264e-05 -2.69773e-06 6.53171e-05 2.9745e-05 -2.69773e-06 -3.79198e-05 3.41264e-05 -2.69773e-06 -2.87485e-05 -6.51325e-05 -2.69773e-06 -3.79198e-05 -6.51325e-05 -9.96998e-05 5.06009e-05 9.7254e-06 -5.86876e-06 -4.66015e-05 9.7254e-06 -2.87485e-05 -4.66015e-05 -8.4695e-05 -5.86876e-06 -4.66015e-05 -5.41708e-05 -9.46904e-05 -4.66015e-05 -8.4695e-05 -9.46904e-05 -0.000132344 -2.87485e-05 -6.51325e-05 -8.4695e-05 -0.000120484 -6.51325e-05 -9.96998e-05 -0.000120484 -0.000154242 -8.4695e-05 -0.000120484 -0.000132344 -0.000167492 -0.000120484 -0.000154242 -0.000167492 -0.000200415 0.000146846 8.94235e-05 0.000110013 5.14921e-05 8.94235e-05 3.73028e-05 5.14921e-05 -1.28109e-06 0.000110013 5.14921e-05 8.29752e-05 2.36583e-05 5.14921e-05 -1.28109e-06 2.36583e-05 -2.95826e-05 3.73028e-05 -1.03479e-05 -1.28109e-06 -4.92257e-05 -1.03479e-05 -5.41708e-05 -4.92257e-05 -9.30539e-05 -1.28109e-06 -4.92257e-05 -2.95826e-05 -7.77267e-05 -4.92257e-05 -9.30539e-05 -7.77267e-05 -0.000121535 8.29752e-05 2.36583e-05 6.64595e-05 6.66009e-06 2.36583e-05 -2.95826e-05 6.66009e-06 -4.68618e-05 6.64595e-05 6.66009e-06 6.09051e-05 9.44206e-07 6.66009e-06 -4.68618e-05 9.44206e-07 -5.26714e-05 -2.95826e-05 -7.77267e-05 -4.68618e-05 -9.51209e-05 -7.77267e-05 -0.000121535 -9.51209e-05 -0.000138908 -4.68618e-05 -9.51209e-05 -5.26714e-05 -0.000100968 -9.51209e-05 -0.000138908 -0.000100968 -0.000144746 -5.41708e-05 -9.46904e-05 -9.30539e-05 -0.000133344 -9.46904e-05 -0.000132344 -0.000133344 -0.000170573 -9.30539e-05 -0.000133344 -0.000121535 -0.000161626 -0.000133344 -0.000170573 -0.000161626 -0.000198506 -0.000132344 -0.000167492 -0.000170573 -0.000205125 -0.000167492 -0.000200415 -0.000205125 -0.000237293 -0.000170573 -0.000205125 -0.000198506 -0.00023258 -0.000205125 -0.000237293 -0.00023258 -0.000264154 -0.000121535 -0.000161626 -0.000138908 -0.000178865 -0.000161626 -0.000198506 -0.000178865 -0.000215518 -0.000138908 -0.000178865 -0.000144746 -0.000184656 -0.000178865 -0.000215518 -0.000184656 -0.00022123 -0.000198506 -0.00023258 -0.000215518 -0.000249284 -0.00023258 -0.000264154 -0.000249284 -0.000280479 -0.000215518 -0.000249284 -0.00022123 -0.00025489 -0.000249284 -0.000280479 -0.00025489 -0.000285955 2.9745e-05 -4.71742e-06 -3.79198e-05 -7.17889e-05 -4.71742e-06 -3.83243e-05 -7.17889e-05 -0.000104463 -3.79198e-05 -7.17889e-05 -9.96998e-05 -0.00013266 -7.17889e-05 -0.000104463 -0.00013266 -0.000164119 -3.83243e-05 -7.11707e-05 -0.000104463 -0.000135941 -7.11707e-05 -0.00010307 -0.000135941 -0.000165983 -0.000104463 -0.000135941 -0.000164119 -0.000194038 -0.000135941 -0.000165983 -0.000194038 -0.00022219 -9.96998e-05 -0.00013266 -0.000154242 -0.00018616 -0.00013266 -0.000164119 -0.00018616 -0.000216325 -0.000154242 -0.00018616 -0.000200415 -0.000231303 -0.00018616 -0.000216325 -0.000231303 -0.000260244 -0.000164119 -0.000194038 -0.000216325 -0.000244697 -0.000194038 -0.00022219 -0.000244697 -0.000271085 -0.000216325 -0.000244697 -0.000260244 -0.000287213 -0.000244697 -0.000271085 -0.000287213 -0.000312067 -0.00010307 -0.000133438 -0.000165983 -0.000194064 -0.000133438 -0.000161244 -0.000194064 -0.000219371 -0.000165983 -0.000194064 -0.00022219 -0.000248141 -0.000194064 -0.000219371 -0.000248141 -0.000271274 -0.000161244 -0.000185101 -0.000219371 -0.000240894 -0.000185101 -0.00020352 -0.000240894 -0.000257603 -0.000219371 -0.000240894 -0.000271274 -0.000290864 -0.000240894 -0.000257603 -0.000290864 -0.0003062 -0.00022219 -0.000248141 -0.000271085 -0.000295154 -0.000248141 -0.000271274 -0.000295154 -0.000316449 -0.000271085 -0.000295154 -0.000312067 -0.000334554 -0.000295154 -0.000316449 -0.000334554 -0.000354346 -0.000271274 -0.000290864 -0.000316449 -0.000334455 -0.000290864 -0.0003062 -0.000334455 -0.000348687 -0.000316449 -0.000334455 -0.000354346 -0.000371085 -0.000334455 -0.000348687 -0.000371085 -0.000384447 -0.000200415 -0.000231303 -0.000237293 -0.000267275 -0.000231303 -0.000260244 -0.000267275 -0.00029517 -0.000237293 -0.000267275 -0.000264154 -0.000293435 -0.000267275 -0.00029517 -0.000293435 -0.000320534 -0.000260244 -0.000287213 -0.00029517 -0.000320972 -0.000287213 -0.000312067 -0.000320972 -0.000344581 -0.00029517 -0.000320972 -0.000320534 -0.000345465 -0.000320972 -0.000344581 -0.000345465 -0.000368161 -0.000264154 -0.000293435 -0.000280479 -0.000309318 -0.000293435 -0.000320534 -0.000309318 -0.000335921 -0.000280479 -0.000309318 -0.000285955 -0.000314644 -0.000309318 -0.000335921 -0.000314644 -0.000341078 -0.000320534 -0.000345465 -0.000335921 -0.000360315 -0.000345465 -0.000368161 -0.000360315 -0.000382455 -0.000335921 -0.000360315 -0.000341078 -0.000365292 -0.000360315 -0.000382455 -0.000365292 -0.000387244 -0.000312067 -0.000334554 -0.000344581 -0.000365816 -0.000334554 -0.000354346 -0.000365816 -0.000384441 -0.000344581 -0.000365816 -0.000368161 -0.000388491 -0.000365816 -0.000384441 -0.000388491 -0.000406283 -0.000354346 -0.000371085 -0.000384441 -0.00040021 -0.000371085 -0.000384447 -0.00040021 -0.000412912 -0.000384441 -0.00040021 -0.000406283 -0.000421368 -0.00040021 -0.000412912 -0.000421368 -0.000433606 -0.000368161 -0.000388491 -0.000382455 -0.000402238 -0.000388491 -0.000406283 -0.000402238 -0.000419531 -0.000382455 -0.000402238 -0.000387244 -0.000406844 -0.000402238 -0.000419531 -0.000406844 -0.000423972 -0.000406283 -0.000421368 -0.000419531 -0.000434207 -0.000421368 -0.000433606 -0.000434207 -0.000446171 -0.000419531 -0.000434207 -0.000423972 -0.000438512 -0.000434207 -0.000446171 -0.000438512 -0.000450385 0.000602791 0.00056916 0.000392836 0.000408691 0.00056916 0.000539928 0.000408691 0.000414935 0.000392836 0.000408691 0.00023855 0.000267441 0.000408691 0.000414935 0.000267441 0.00029176 0.000236822 0.000219941 0.000142171 0.000123844 0.000219941 0.00023855 0.000123844 0.00013133 0.000142171 0.000123844 6.08465e-05 4.4047e-05 0.000123844 0.00013133 4.4047e-05 4.57286e-05 0.00023855 0.000267441 0.00013133 0.000154455 0.000267441 0.00029176 0.000154455 0.000181837 0.00013133 0.000154455 4.57286e-05 6.20521e-05 0.000154455 0.000181837 6.20521e-05 8.61277e-05 0.000539928 0.000518074 0.000414935 0.000417779 0.000518074 0.000503514 0.000417779 0.000420333 0.000414935 0.000417779 0.00029176 0.000310923 0.000417779 0.000420333 0.000310923 0.000326644 0.000503514 0.000495436 0.000420333 0.000424079 0.000495436 0.000492903 0.000424079 0.000429566 0.000420333 0.000424079 0.000326644 0.000340438 0.000424079 0.000429566 0.000340438 0.000353301 0.00029176 0.000310923 0.000181837 0.00020778 0.000310923 0.000326644 0.00020778 0.000230888 0.000181837 0.00020778 8.61277e-05 0.000112417 0.00020778 0.000230888 0.000112417 0.000137951 0.000326644 0.000340438 0.000230888 0.000251366 0.000340438 0.000353301 0.000251366 0.000269743 0.000230888 0.000251366 0.000137951 0.00016164 0.000251366 0.000269743 0.00016164 0.000183244 6.08465e-05 4.4047e-05 -1.27142e-05 -2.78741e-05 4.4047e-05 4.57286e-05 -2.78741e-05 -2.90606e-05 -1.27142e-05 -2.78741e-05 -8.09049e-05 -9.46484e-05 -2.78741e-05 -2.90606e-05 -9.46484e-05 -9.74615e-05 4.57286e-05 6.20521e-05 -2.90606e-05 -1.79559e-05 6.20521e-05 8.61277e-05 -1.79559e-05 1.52564e-06 -2.90606e-05 -1.79559e-05 -9.74615e-05 -9.011e-05 -1.79559e-05 1.52564e-06 -9.011e-05 -7.49107e-05 -8.09049e-05 -9.46484e-05 -0.000144498 -0.000157135 -9.46484e-05 -9.74615e-05 -0.000157135 -0.000160977 -0.000144498 -0.000157135 -0.00020352 -0.000215293 -0.000157135 -0.000160977 -0.000215293 -0.000219849 -9.74615e-05 -9.011e-05 -0.000160977 -0.000156397 -9.011e-05 -7.49107e-05 -0.000156397 -0.000144825 -0.000160977 -0.000156397 -0.000219849 -0.000217397 -0.000156397 -0.000144825 -0.000217397 -0.000208843 8.61277e-05 0.000112417 1.52564e-06 2.51773e-05 0.000112417 0.000137951 2.51773e-05 4.99707e-05 1.52564e-06 2.51773e-05 -7.49107e-05 -5.48093e-05 2.51773e-05 4.99707e-05 -5.48093e-05 -3.23693e-05 0.000137951 0.00016164 4.99707e-05 7.41604e-05 0.00016164 0.000183244 7.41604e-05 9.68865e-05 4.99707e-05 7.41604e-05 -3.23693e-05 -9.45046e-06 7.41604e-05 9.68865e-05 -9.45046e-06 1.27783e-05 -7.49107e-05 -5.48093e-05 -0.000144825 -0.000128308 -5.48093e-05 -3.23693e-05 -0.000128308 -0.000108878 -0.000144825 -0.000128308 -0.000208843 -0.000195639 -0.000128308 -0.000108878 -0.000195639 -0.000179372 -3.23693e-05 -9.45046e-06 -0.000108878 -8.82331e-05 -9.45046e-06 1.27783e-05 -8.82331e-05 -6.75945e-05 -0.000108878 -8.82331e-05 -0.000179372 -0.000161472 -8.82331e-05 -6.75945e-05 -0.000161472 -0.000143072 0.000492903 0.00049505 0.000429566 0.000436814 0.00049505 0.000501029 0.000436814 0.000445521 0.000429566 0.000436814 0.000353301 0.000365718 0.000436814 0.000445521 0.000365718 0.000377791 0.000501029 0.000509885 0.000445521 0.000455165 0.000509885 0.000520471 0.000455165 0.000465049 0.000445521 0.000455165 0.000377791 0.000389369 0.000455165 0.000465049 0.000389369 0.000400137 0.000353301 0.000365718 0.000269743 0.00028644 0.000365718 0.000377791 0.00028644 0.000301669 0.000269743 0.00028644 0.000183244 0.0002028 0.00028644 0.000301669 0.0002028 0.000220396 0.000377791 0.000389369 0.000301669 0.000315471 0.000389369 0.000400137 0.000315471 0.000327766 0.000301669 0.000315471 0.000220396 0.00023609 0.000315471 0.000327766 0.00023609 0.000249892 0.000520471 0.000531416 0.000465049 0.000474336 0.000531416 0.000541146 0.000474336 0.000482098 0.000465049 0.000474336 0.000400137 0.000409669 0.000474336 0.000482098 0.000409669 0.000417454 0.000541146 0.000547968 0.000482098 0.000487358 0.000547968 0.000550509 0.000487358 0.000489213 0.000482098 0.000487358 0.000417454 0.000422863 0.000487358 0.000489213 0.000422863 0.000424863 0.000400137 0.000409669 0.000327766 0.000338383 0.000409669 0.000417454 0.000338383 0.000347039 0.000327766 0.000338383 0.000249892 0.000261749 0.000338383 0.000347039 0.000261749 0.000271493 0.000417454 0.000422863 0.000347039 0.00035323 0.000422863 0.000424863 0.00035323 0.000355973 0.000347039 0.00035323 0.000271493 0.00027873 0.00035323 0.000355973 0.00027873 0.000282671 0.000183244 0.0002028 9.68865e-05 0.000117776 0.0002028 0.000220396 0.000117776 0.00013669 9.68865e-05 0.000117776 1.27783e-05 3.36536e-05 0.000117776 0.00013669 3.36536e-05 5.28313e-05 0.000220396 0.00023609 0.00013669 0.000153595 0.00023609 0.000249892 0.000153595 0.000168495 0.00013669 0.000153595 5.28313e-05 7.01591e-05 0.000153595 0.000168495 7.01591e-05 8.55896e-05 1.27783e-05 3.36536e-05 -6.75945e-05 -4.77656e-05 3.36536e-05 5.28313e-05 -4.77656e-05 -2.92228e-05 -6.75945e-05 -4.77656e-05 -0.000143072 -0.00012499 -4.77656e-05 -2.92228e-05 -0.00012499 -0.000107752 5.28313e-05 7.01591e-05 -2.92228e-05 -1.22108e-05 7.01591e-05 8.55896e-05 -1.22108e-05 3.17827e-06 -2.92228e-05 -1.22108e-05 -0.000107752 -9.16483e-05 -1.22108e-05 3.17827e-06 -9.16483e-05 -7.67866e-05 0.000249892 0.000261749 0.000168495 0.000181374 0.000261749 0.000271493 0.000181374 0.000192135 0.000168495 0.000181374 8.55896e-05 9.91124e-05 0.000181374 0.000192135 9.91124e-05 0.000110694 0.000271493 0.00027873 0.000192135 0.000200512 0.00027873 0.000282671 0.000200512 0.000205979 0.000192135 0.000200512 0.000110694 0.000120213 0.000200512 0.000205979 0.000120213 0.000127413 8.55896e-05 9.91124e-05 3.17827e-06 1.6938e-05 9.91124e-05 0.000110694 1.6938e-05 2.91101e-05 3.17827e-06 1.6938e-05 -7.67866e-05 -6.31485e-05 1.6938e-05 2.91101e-05 -6.31485e-05 -5.06094e-05 0.000110694 0.000120213 2.91101e-05 3.97138e-05 0.000120213 0.000127413 3.97138e-05 4.8749e-05 2.91101e-05 3.97138e-05 -5.06094e-05 -3.90116e-05 3.97138e-05 4.8749e-05 -3.90116e-05 -2.81276e-05 -0.00020352 -0.000215293 -0.000257603 -0.000268691 -0.000215293 -0.000219849 -0.000268691 -0.000273776 -0.000257603 -0.000268691 -0.0003062 -0.000316738 -0.000268691 -0.000273776 -0.000316738 -0.000322233 -0.000219849 -0.000217397 -0.000273776 -0.000273003 -0.000217397 -0.000208843 -0.000273003 -0.000266964 -0.000273776 -0.000273003 -0.000322233 -0.0003228 -0.000273003 -0.000266964 -0.0003228 -0.000318864 -0.0003062 -0.000316738 -0.000348687 -0.000358787 -0.000316738 -0.000322233 -0.000358787 -0.000364607 -0.000348687 -0.000358787 -0.000384447 -0.000394204 -0.000358787 -0.000364607 -0.000394204 -0.000400278 -0.000322233 -0.0003228 -0.000364607 -0.000366247 -0.0003228 -0.000318864 -0.000366247 -0.000364053 -0.000364607 -0.000366247 -0.000400278 -0.000402769 -0.000366247 -0.000364053 -0.000402769 -0.000401989 -0.000208843 -0.000195639 -0.000266964 -0.000256725 -0.000195639 -0.000179372 -0.000256725 -0.00024351 -0.000266964 -0.000256725 -0.000318864 -0.000311218 -0.000256725 -0.00024351 -0.000311218 -0.000300809 -0.000179372 -0.000161472 -0.00024351 -0.000228485 -0.000161472 -0.000143072 -0.000228485 -0.000212633 -0.00024351 -0.000228485 -0.000300809 -0.000288571 -0.000228485 -0.000212633 -0.000288571 -0.000275321 -0.000318864 -0.000311218 -0.000364053 -0.000358624 -0.000311218 -0.000300809 -0.000358624 -0.000350694 -0.000364053 -0.000358624 -0.000401989 -0.000398391 -0.000358624 -0.000350694 -0.000398391 -0.00039256 -0.000300809 -0.000288571 -0.000350694 -0.000341007 -0.000288571 -0.000