# vtk DataFile Version 3.0
#This file was generated by the deal.II library on 2022/11/17 at 0:52:39
ASCII
DATASET UNSTRUCTURED_GRID

POINTS 10192 double
0.4375 0.75 0
0.46875 0.75 0
0.4375 0.78125 0
0.46875 0.78125 0
0.46875 0.75 0
0.5 0.75 0
0.46875 0.78125 0
0.5 0.78125 0
0.4375 0.78125 0
0.46875 0.78125 0
0.4375 0.8125 0
0.46875 0.8125 0
0.46875 0.78125 0
0.5 0.78125 0
0.46875 0.8125 0
0.5 0.8125 0
0.4375 0.8125 0
0.46875 0.8125 0
0.4375 0.84375 0
0.46875 0.84375 0
0.46875 0.8125 0
0.5 0.8125 0
0.46875 0.84375 0
0.5 0.84375 0
0.4375 0.84375 0
0.46875 0.84375 0
0.4375 0.875 0
0.46875 0.875 0
0.46875 0.84375 0
0.5 0.84375 0
0.46875 0.875 0
0.5 0.875 0
0.375 0.875 0
0.40625 0.875 0
0.375 0.90625 0
0.40625 0.90625 0
0.40625 0.875 0
0.4375 0.875 0
0.40625 0.90625 0
0.4375 0.90625 0
0.375 0.90625 0
0.40625 0.90625 0
0.375 0.9375 0
0.40625 0.9375 0
0.40625 0.90625 0
0.4375 0.90625 0
0.40625 0.9375 0
0.4375 0.9375 0
0.4375 0.875 0
0.46875 0.875 0
0.4375 0.90625 0
0.46875 0.90625 0
0.46875 0.875 0
0.5 0.875 0
0.46875 0.90625 0
0.5 0.90625 0
0.4375 0.90625 0
0.46875 0.90625 0
0.4375 0.9375 0
0.46875 0.9375 0
0.46875 0.90625 0
0.5 0.90625 0
0.46875 0.9375 0
0.5 0.9375 0
0.625 0.5 0
0.65625 0.5 0
0.625 0.53125 0
0.65625 0.53125 0
0.65625 0.5 0
0.6875 0.5 0
0.65625 0.53125 0
0.6875 0.53125 0
0.625 0.53125 0
0.65625 0.53125 0
0.625 0.5625 0
0.65625 0.5625 0
0.65625 0.53125 0
0.6875 0.53125 0
0.65625 0.5625 0
0.6875 0.5625 0
0.6875 0.5 0
0.71875 0.5 0
0.6875 0.53125 0
0.71875 0.53125 0
0.71875 0.5 0
0.75 0.5 0
0.71875 0.53125 0
0.75 0.53125 0
0.6875 0.53125 0
0.71875 0.53125 0
0.6875 0.5625 0
0.71875 0.5625 0
0.71875 0.53125 0
0.75 0.53125 0
0.71875 0.5625 0
0.75 0.5625 0
0.625 0.5625 0
0.65625 0.5625 0
0.625 0.59375 0
0.65625 0.59375 0
0.65625 0.5625 0
0.6875 0.5625 0
0.65625 0.59375 0
0.6875 0.59375 0
0.625 0.59375 0
0.65625 0.59375 0
0.625 0.625 0
0.65625 0.625 0
0.65625 0.59375 0
0.6875 0.59375 0
0.65625 0.625 0
0.6875 0.625 0
0.6875 0.5625 0
0.71875 0.5625 0
0.6875 0.59375 0
0.71875 0.59375 0
0.71875 0.5625 0
0.75 0.5625 0
0.71875 0.59375 0
0.75 0.59375 0
0.6875 0.59375 0
0.71875 0.59375 0
0.6875 0.625 0
0.71875 0.625 0
0.71875 0.59375 0
0.75 0.59375 0
0.71875 0.625 0
0.75 0.625 0
0.5625 0.625 0
0.59375 0.625 0
0.5625 0.65625 0
0.59375 0.65625 0
0.59375 0.625 0
0.625 0.625 0
0.59375 0.65625 0
0.625 0.65625 0
0.5625 0.65625 0
0.59375 0.65625 0
0.5625 0.6875 0
0.59375 0.6875 0
0.59375 0.65625 0
0.625 0.65625 0
0.59375 0.6875 0
0.625 0.6875 0
0.5 0.6875 0
0.53125 0.6875 0
0.5 0.71875 0
0.53125 0.71875 0
0.53125 0.6875 0
0.5625 0.6875 0
0.53125 0.71875 0
0.5625 0.71875 0
0.5 0.71875 0
0.53125 0.71875 0
0.5 0.75 0
0.53125 0.75 0
0.53125 0.71875 0
0.5625 0.71875 0
0.53125 0.75 0
0.5625 0.75 0
0.5625 0.6875 0
0.59375 0.6875 0
0.5625 0.71875 0
0.59375 0.71875 0
0.59375 0.6875 0
0.625 0.6875 0
0.59375 0.71875 0
0.625 0.71875 0
0.5625 0.71875 0
0.59375 0.71875 0
0.5625 0.75 0
0.59375 0.75 0
0.59375 0.71875 0
0.625 0.71875 0
0.59375 0.75 0
0.625 0.75 0
0.625 0.625 0
0.65625 0.625 0
0.625 0.65625 0
0.65625 0.65625 0
0.65625 0.625 0
0.6875 0.625 0
0.65625 0.65625 0
0.6875 0.65625 0
0.625 0.65625 0
0.65625 0.65625 0
0.625 0.6875 0
0.65625 0.6875 0
0.65625 0.65625 0
0.6875 0.65625 0
0.65625 0.6875 0
0.6875 0.6875 0
0.6875 0.625 0
0.71875 0.625 0
0.6875 0.65625 0
0.71875 0.65625 0
0.71875 0.625 0
0.75 0.625 0
0.71875 0.65625 0
0.75 0.65625 0
0.6875 0.65625 0
0.71875 0.65625 0
0.6875 0.6875 0
0.71875 0.6875 0
0.71875 0.65625 0
0.75 0.65625 0
0.71875 0.6875 0
0.75 0.6875 0
0.625 0.6875 0
0.65625 0.6875 0
0.625 0.71875 0
0.65625 0.71875 0
0.65625 0.6875 0
0.6875 0.6875 0
0.65625 0.71875 0
0.6875 0.71875 0
0.625 0.71875 0
0.65625 0.71875 0
0.625 0.75 0
0.65625 0.75 0
0.65625 0.71875 0
0.6875 0.71875 0
0.65625 0.75 0
0.6875 0.75 0
0.6875 0.6875 0
0.71875 0.6875 0
0.6875 0.71875 0
0.71875 0.71875 0
0.71875 0.6875 0
0.75 0.6875 0
0.71875 0.71875 0
0.75 0.71875 0
0.6875 0.71875 0
0.71875 0.71875 0
0.6875 0.75 0
0.71875 0.75 0
0.71875 0.71875 0
0.75 0.71875 0
0.71875 0.75 0
0.75 0.75 0
0.75 0.5 0
0.78125 0.5 0
0.75 0.53125 0
0.78125 0.53125 0
0.78125 0.5 0
0.8125 0.5 0
0.78125 0.53125 0
0.8125 0.53125 0
0.75 0.53125 0
0.78125 0.53125 0
0.75 0.5625 0
0.78125 0.5625 0
0.78125 0.53125 0
0.8125 0.53125 0
0.78125 0.5625 0
0.8125 0.5625 0
0.8125 0.5 0
0.84375 0.5 0
0.8125 0.53125 0
0.84375 0.53125 0
0.84375 0.5 0
0.875 0.5 0
0.84375 0.53125 0
0.875 0.53125 0
0.8125 0.53125 0
0.84375 0.53125 0
0.8125 0.5625 0
0.84375 0.5625 0
0.84375 0.53125 0
0.875 0.53125 0
0.84375 0.5625 0
0.875 0.5625 0
0.75 0.5625 0
0.78125 0.5625 0
0.75 0.59375 0
0.78125 0.59375 0
0.78125 0.5625 0
0.8125 0.5625 0
0.78125 0.59375 0
0.8125 0.59375 0
0.75 0.59375 0
0.78125 0.59375 0
0.75 0.625 0
0.78125 0.625 0
0.78125 0.59375 0
0.8125 0.59375 0
0.78125 0.625 0
0.8125 0.625 0
0.8125 0.5625 0
0.84375 0.5625 0
0.8125 0.59375 0
0.84375 0.59375 0
0.84375 0.5625 0
0.875 0.5625 0
0.84375 0.59375 0
0.875 0.59375 0
0.8125 0.59375 0
0.84375 0.59375 0
0.8125 0.625 0
0.84375 0.625 0
0.84375 0.59375 0
0.875 0.59375 0
0.84375 0.625 0
0.875 0.625 0
0.875 0.5 0
0.90625 0.5 0
0.875 0.53125 0
0.90625 0.53125 0
0.90625 0.5 0
0.9375 0.5 0
0.90625 0.53125 0
0.9375 0.53125 0
0.875 0.53125 0
0.90625 0.53125 0
0.875 0.5625 0
0.90625 0.5625 0
0.90625 0.53125 0
0.9375 0.53125 0
0.90625 0.5625 0
0.9375 0.5625 0
0.9375 0.5 0
0.96875 0.5 0
0.9375 0.53125 0
0.96875 0.53125 0
0.96875 0.5 0
1 0.5 0
0.96875 0.53125 0
1 0.53125 0
0.9375 0.53125 0
0.96875 0.53125 0
0.9375 0.5625 0
0.96875 0.5625 0
0.96875 0.53125 0
1 0.53125 0
0.96875 0.5625 0
1 0.5625 0
0.875 0.5625 0
0.90625 0.5625 0
0.875 0.59375 0
0.90625 0.59375 0
0.90625 0.5625 0
0.9375 0.5625 0
0.90625 0.59375 0
0.9375 0.59375 0
0.875 0.59375 0
0.90625 0.59375 0
0.875 0.625 0
0.90625 0.625 0
0.90625 0.59375 0
0.9375 0.59375 0
0.90625 0.625 0
0.9375 0.625 0
0.9375 0.5625 0
0.96875 0.5625 0
0.9375 0.59375 0
0.96875 0.59375 0
0.96875 0.5625 0
1 0.5625 0
0.96875 0.59375 0
1 0.59375 0
0.9375 0.59375 0
0.96875 0.59375 0
0.9375 0.625 0
0.96875 0.625 0
0.96875 0.59375 0
1 0.59375 0
0.96875 0.625 0
1 0.625 0
0.75 0.625 0
0.78125 0.625 0
0.75 0.65625 0
0.78125 0.65625 0
0.78125 0.625 0
0.8125 0.625 0
0.78125 0.65625 0
0.8125 0.65625 0
0.75 0.65625 0
0.78125 0.65625 0
0.75 0.6875 0
0.78125 0.6875 0
0.78125 0.65625 0
0.8125 0.65625 0
0.78125 0.6875 0
0.8125 0.6875 0
0.8125 0.625 0
0.84375 0.625 0
0.8125 0.65625 0
0.84375 0.65625 0
0.84375 0.625 0
0.875 0.625 0
0.84375 0.65625 0
0.875 0.65625 0
0.8125 0.65625 0
0.84375 0.65625 0
0.8125 0.6875 0
0.84375 0.6875 0
0.84375 0.65625 0
0.875 0.65625 0
0.84375 0.6875 0
0.875 0.6875 0
0.75 0.6875 0
0.78125 0.6875 0
0.75 0.71875 0
0.78125 0.71875 0
0.78125 0.6875 0
0.8125 0.6875 0
0.78125 0.71875 0
0.8125 0.71875 0
0.75 0.71875 0
0.78125 0.71875 0
0.75 0.75 0
0.78125 0.75 0
0.78125 0.71875 0
0.8125 0.71875 0
0.78125 0.75 0
0.8125 0.75 0
0.8125 0.6875 0
0.84375 0.6875 0
0.8125 0.71875 0
0.84375 0.71875 0
0.84375 0.6875 0
0.875 0.6875 0
0.84375 0.71875 0
0.875 0.71875 0
0.8125 0.71875 0
0.84375 0.71875 0
0.8125 0.75 0
0.84375 0.75 0
0.84375 0.71875 0
0.875 0.71875 0
0.84375 0.75 0
0.875 0.75 0
0.875 0.625 0
0.90625 0.625 0
0.875 0.65625 0
0.90625 0.65625 0
0.90625 0.625 0
0.9375 0.625 0
0.90625 0.65625 0
0.9375 0.65625 0
0.875 0.65625 0
0.90625 0.65625 0
0.875 0.6875 0
0.90625 0.6875 0
0.90625 0.65625 0
0.9375 0.65625 0
0.90625 0.6875 0
0.9375 0.6875 0
0.9375 0.625 0
0.96875 0.625 0
0.9375 0.65625 0
0.96875 0.65625 0
0.96875 0.625 0
1 0.625 0
0.96875 0.65625 0
1 0.65625 0
0.9375 0.65625 0
0.96875 0.65625 0
0.9375 0.6875 0
0.96875 0.6875 0
0.96875 0.65625 0
1 0.65625 0
0.96875 0.6875 0
1 0.6875 0
0.875 0.6875 0
0.90625 0.6875 0
0.875 0.71875 0
0.90625 0.71875 0
0.90625 0.6875 0
0.9375 0.6875 0
0.90625 0.71875 0
0.9375 0.71875 0
0.875 0.71875 0
0.90625 0.71875 0
0.875 0.75 0
0.90625 0.75 0
0.90625 0.71875 0
0.9375 0.71875 0
0.90625 0.75 0
0.9375 0.75 0
0.9375 0.6875 0
0.96875 0.6875 0
0.9375 0.71875 0
0.96875 0.71875 0
0.96875 0.6875 0
1 0.6875 0
0.96875 0.71875 0
1 0.71875 0
0.9375 0.71875 0
0.96875 0.71875 0
0.9375 0.75 0
0.96875 0.75 0
0.96875 0.71875 0
1 0.71875 0
0.96875 0.75 0
1 0.75 0
0.5 0.75 0
0.53125 0.75 0
0.5 0.78125 0
0.53125 0.78125 0
0.53125 0.75 0
0.5625 0.75 0
0.53125 0.78125 0
0.5625 0.78125 0
0.5 0.78125 0
0.53125 0.78125 0
0.5 0.8125 0
0.53125 0.8125 0
0.53125 0.78125 0
0.5625 0.78125 0
0.53125 0.8125 0
0.5625 0.8125 0
0.5625 0.75 0
0.59375 0.75 0
0.5625 0.78125 0
0.59375 0.78125 0
0.59375 0.75 0
0.625 0.75 0
0.59375 0.78125 0
0.625 0.78125 0
0.5625 0.78125 0
0.59375 0.78125 0
0.5625 0.8125 0
0.59375 0.8125 0
0.59375 0.78125 0
0.625 0.78125 0
0.59375 0.8125 0
0.625 0.8125 0
0.5 0.8125 0
0.53125 0.8125 0
0.5 0.84375 0
0.53125 0.84375 0
0.53125 0.8125 0
0.5625 0.8125 0
0.53125 0.84375 0
0.5625 0.84375 0
0.5 0.84375 0
0.53125 0.84375 0
0.5 0.875 0
0.53125 0.875 0
0.53125 0.84375 0
0.5625 0.84375 0
0.53125 0.875 0
0.5625 0.875 0
0.5625 0.8125 0
0.59375 0.8125 0
0.5625 0.84375 0
0.59375 0.84375 0
0.59375 0.8125 0
0.625 0.8125 0
0.59375 0.84375 0
0.625 0.84375 0
0.5625 0.84375 0
0.59375 0.84375 0
0.5625 0.875 0
0.59375 0.875 0
0.59375 0.84375 0
0.625 0.84375 0
0.59375 0.875 0
0.625 0.875 0
0.625 0.75 0
0.65625 0.75 0
0.625 0.78125 0
0.65625 0.78125 0
0.65625 0.75 0
0.6875 0.75 0
0.65625 0.78125 0
0.6875 0.78125 0
0.625 0.78125 0
0.65625 0.78125 0
0.625 0.8125 0
0.65625 0.8125 0
0.65625 0.78125 0
0.6875 0.78125 0
0.65625 0.8125 0
0.6875 0.8125 0
0.6875 0.75 0
0.71875 0.75 0
0.6875 0.78125 0
0.71875 0.78125 0
0.71875 0.75 0
0.75 0.75 0
0.71875 0.78125 0
0.75 0.78125 0
0.6875 0.78125 0
0.71875 0.78125 0
0.6875 0.8125 0
0.71875 0.8125 0
0.71875 0.78125 0
0.75 0.78125 0
0.71875 0.8125 0
0.75 0.8125 0
0.625 0.8125 0
0.65625 0.8125 0
0.625 0.84375 0
0.65625 0.84375 0
0.65625 0.8125 0
0.6875 0.8125 0
0.65625 0.84375 0
0.6875 0.84375 0
0.625 0.84375 0
0.65625 0.84375 0
0.625 0.875 0
0.65625 0.875 0
0.65625 0.84375 0
0.6875 0.84375 0
0.65625 0.875 0
0.6875 0.875 0
0.6875 0.8125 0
0.71875 0.8125 0
0.6875 0.84375 0
[...]
POINT_DATA 10192
SCALARS x_dis double 1
LOOKUP_TABLE default
-0.000245961 -0.000242715 -0.000350083 -0.000348744 -0.000242715 -0.000236876 -0.000348744 -0.000343449 -0.000350083 -0.000348744 -0.000440002 -0.000441092 -0.000348744 -0.000343449 -0.000441092 -0.000437401 -0.000440002 -0.000441092 -0.000516306 -0.000519861 -0.000441092 -0.000437401 -0.000519861 -0.000518223 -0.000516306 -0.000519861 -0.000579251 -0.00058503 -0.000519861 -0.000518223 -0.00058503 -0.000585492 -0.000545323 -0.000566399 -0.000591334 -0.000613745 -0.000566399 -0.000579251 -0.000613745 -0.000628237 -0.000591334 -0.000613745 -0.000624061 -0.000647712 -0.000613745 -0.000628237 -0.000647712 -0.000663334 -0.000579251 -0.00058503 -0.000628237 -0.00063598 -0.00058503 -0.000585492 -0.00063598 -0.000638324 -0.000628237 -0.00063598 -0.000663334 -0.000672134 -0.00063598 -0.000638324 -0.000672134 -0.000675487 0.000636977 0.00058781 0.000559773 0.000525991 0.00058781 0.000552971 0.000525991 0.000499507 0.000559773 0.000525991 0.000459094 0.000440265 0.000525991 0.000499507 0.000440265 0.000423111 0.000552971 0.000529788 0.000499507 0.000480236 0.000529788 0.000516579 0.000480236 0.000467528 0.000499507 0.000480236 0.000423111 0.000409215 0.000480236 0.000467528 0.000409215 0.000398906 0.000459094 0.000440265 0.000352643 0.000341678 0.000440265 0.000423111 0.000341678 0.000331658 0.000352643 0.000341678 0.000242451 0.00023624 0.000341678 0.000331658 0.00023624 0.000231009 0.000423111 0.000409215 0.000331658 0.000322832 0.000409215 0.000398906 0.000322832 0.000315604 0.000331658 0.000322832 0.000231009 0.000226234 0.000322832 0.000315604 0.000226234 0.000221988 0.000262898 0.000250579 0.000138305 0.000132762 0.000250579 0.000242451 0.000132762 0.000129079 0.000138305 0.000132762 1.36645e-05 1.38507e-05 0.000132762 0.000129079 1.38507e-05 1.45632e-05 1.17114e-05 1.3294e-05 -0.00011807 -0.000112502 1.3294e-05 1.36645e-05 -0.000112502 -0.000107443 -0.00011807 -0.000112502 -0.000236876 -0.000229517 -0.000112502 -0.000107443 -0.000229517 -0.000221865 1.36645e-05 1.38507e-05 -0.000107443 -0.00010289 1.38507e-05 1.45632e-05 -0.00010289 -9.86351e-05 -0.000107443 -0.00010289 -0.000221865 -0.000214542 -0.00010289 -9.86351e-05 -0.000214542 -0.000207755 0.000242451 0.00023624 0.000129079 0.00012681 0.00023624 0.000231009 0.00012681 0.000125084 0.000129079 0.00012681 1.45632e-05 1.56721e-05 0.00012681 0.000125084 1.56721e-05 1.68119e-05 0.000231009 0.000226234 0.000125084 0.000123441 0.000226234 0.000221988 0.000123441 0.000121794 0.000125084 0.000123441 1.68119e-05 1.76763e-05 0.000123441 0.000121794 1.76763e-05 1.8231e-05 1.45632e-05 1.56721e-05 -9.86351e-05 -9.46736e-05 1.56721e-05 1.68119e-05 -9.46736e-05 -9.11706e-05 -9.86351e-05 -9.46736e-05 -0.000207755 -0.000201631 -9.46736e-05 -9.11706e-05 -0.000201631 -0.000196259 1.68119e-05 1.76763e-05 -9.11706e-05 -8.82369e-05 1.76763e-05 1.8231e-05 -8.82369e-05 -8.58213e-05 -9.11706e-05 -8.82369e-05 -0.000196259 -0.000191645 -8.82369e-05 -8.58213e-05 -0.000191645 -0.000187665 0.000516579 0.000511692 0.000467528 0.000460501 0.000511692 0.000513315 0.000460501 0.000458123 0.000467528 0.000460501 0.000398906 0.000392046 0.000460501 0.000458123 0.000392046 0.000388278 0.000513315 0.000519521 0.000458123 0.000459264 0.000519521 0.000528359 0.000459264 0.000462743 0.000458123 0.000459264 0.000388278 0.000387129 0.000459264 0.000462743 0.000387129 0.000388039 0.000398906 0.000392046 0.000315604 0.000310191 0.000392046 0.000388278 0.000310191 0.000306681 0.000315604 0.000310191 0.000221988 0.000218533 0.000310191 0.000306681 0.000218533 0.000216168 0.000388278 0.000387129 0.000306681 0.000305065 0.000387129 0.000388039 0.000305065 0.000305235 0.000306681 0.000305065 0.000216168 0.000215159 0.000305065 0.000305235 0.000215159 0.000215687 0.000528359 0.000537925 0.000462743 0.000467368 0.000537925 0.0005464 0.000467368 0.000471993 0.000462743 0.000467368 0.000388039 0.000390377 0.000467368 0.000471993 0.000390377 0.000393436 0.0005464 0.000552163 0.000471993 0.000475532 0.000552163 0.000554309 0.000475532 0.000477038 0.000471993 0.000475532 0.000393436 0.000396373 0.000475532 0.000477038 0.000396373 0.000397983 0.000388039 0.000390377 0.000305235 0.000306954 0.000390377 0.000393436 0.000306954 0.000309804 0.000305235 0.000306954 0.000215687 0.000217777 0.000306954 0.000309804 0.000217777 0.000221209 0.000393436 0.000396373 0.000309804 0.000313061 0.000396373 0.000397983 0.000313061 0.000315415 0.000309804 0.000313061 0.000221209 0.000225379 0.000313061 0.000315415 0.000225379 0.000229077 0.000221988 0.000218533 0.000121794 0.000120362 0.000218533 0.000216168 0.000120362 0.000119514 0.000121794 0.000120362 1.8231e-05 1.86869e-05 0.000120362 0.000119514 1.86869e-05 1.94346e-05 0.000216168 0.000215159 0.000119514 0.000119656 0.000215159 0.000215687 0.000119656 0.000121136 0.000119514 0.000119656 1.94346e-05 2.09414e-05 0.000119656 0.000121136 2.09414e-05 2.36442e-05 1.8231e-05 1.86869e-05 -8.58213e-05 -8.36766e-05 1.86869e-05 1.94346e-05 -8.36766e-05 -8.14017e-05 -8.58213e-05 -8.36766e-05 -0.000187665 -0.000184044 -8.36766e-05 -8.14017e-05 -0.000184044 -0.000180373 1.94346e-05 2.09414e-05 -8.14017e-05 -7.85048e-05 2.09414e-05 2.36442e-05 -7.85048e-05 -7.44983e-05 -8.14017e-05 -7.85048e-05 -0.000180373 -0.000176155 -7.85048e-05 -7.44983e-05 -0.000176155 -0.00017087 0.000215687 0.000217777 0.000121136 0.000124146 0.000217777 0.000221209 0.000124146 0.000128623 0.000121136 0.000124146 2.36442e-05 2.78489e-05 0.000124146 0.000128623 2.78489e-05 3.36341e-05 0.000221209 0.000225379 0.000128623 0.000134122 0.000225379 0.000229077 0.000134122 0.000139674 0.000128623 0.000134122 3.36341e-05 4.07542e-05 0.000134122 0.000139674 4.07542e-05 4.8553e-05 2.36442e-05 2.78489e-05 -7.44983e-05 -6.89894e-05 2.78489e-05 3.36341e-05 -6.89894e-05 -6.17603e-05 -7.44983e-05 -6.89894e-05 -0.00017087 -0.000164048 -6.89894e-05 -6.17603e-05 -0.000164048 -0.000155331 3.36341e-05 4.07542e-05 -6.17603e-05 -5.28348e-05 4.07542e-05 4.8553e-05 -5.28348e-05 -4.252e-05 -6.17603e-05 -5.28348e-05 -0.000155331 -0.000144511 -5.28348e-05 -4.252e-05 -0.000144511 -0.000131539 -0.000236876 -0.000229517 -0.000343449 -0.000335913 -0.000229517 -0.000221865 -0.000335913 -0.000327299 -0.000343449 -0.000335913 -0.000437401 -0.000430622 -0.000335913 -0.000327299 -0.000430622 -0.000422061 -0.000221865 -0.000214542 -0.000327299 -0.000318548 -0.000214542 -0.000207755 -0.000318548 -0.000310234 -0.000327299 -0.000318548 -0.000422061 -0.000412854 -0.000318548 -0.000310234 -0.000412854 -0.000403814 -0.000437401 -0.000430622 -0.000518223 -0.000512806 -0.000430622 -0.000422061 -0.000512806 -0.000504938 -0.000518223 -0.000512806 -0.000585492 -0.000581833 -0.000512806 -0.000504938 -0.000581833 -0.000574985 -0.000422061 -0.000412854 -0.000504938 -0.000495827 -0.000412854 -0.000403814 -0.000495827 -0.000486594 -0.000504938 -0.000495827 -0.000574985 -0.000566215 -0.000495827 -0.000486594 -0.000566215 -0.000556926 -0.000207755 -0.000201631 -0.000310234 -0.000302653 -0.000201631 -0.000196259 -0.000302653 -0.000295919 -0.000310234 -0.000302653 -0.000403814 -0.000395407 -0.000302653 -0.000295919 -0.000395407 -0.000387772 -0.000196259 -0.000191645 -0.000295919 -0.000289992 -0.000191645 -0.000187665 -0.000289992 -0.000284722 -0.000295919 -0.000289992 -0.000387772 -0.000380863 -0.000289992 -0.000284722 -0.000380863 -0.000374539 -0.000403814 -0.000395407 -0.000486594 -0.000477828 -0.000395407 -0.000387772 -0.000477828 -0.000469679 -0.000486594 -0.000477828 -0.000556926 -0.000548219 -0.000477828 -0.000469679 -0.000548219 -0.000539734 -0.000387772 -0.000380863 -0.000469679 -0.000462027 -0.000380863 -0.000374539 -0.000462027 -0.000454828 -0.000469679 -0.000462027 -0.000539734 -0.00053147 -0.000462027 -0.000454828 -0.00053147 -0.00052345 -0.000585492 -0.000581833 -0.000638324 -0.00063672 -0.000581833 -0.000574985 -0.00063672 -0.000631664 -0.000638324 -0.00063672 -0.000675487 -0.000675236 -0.00063672 -0.000631664 -0.000675236 -0.000673637 -0.000574985 -0.000566215 -0.000631664 -0.000622856 -0.000566215 -0.000556926 -0.000622856 -0.000613774 -0.000631664 -0.000622856 -0.000673637 -0.000667177 -0.000622856 -0.000613774 -0.000667177 -0.000655675 -0.000556926 -0.000548219 -0.000613774 -0.000605047 -0.000548219 -0.000539734 -0.000605047 -0.000596486 -0.000613774 -0.000605047 -0.000655675 -0.00064917 -0.000605047 -0.000596486 -0.00064917 -0.000636672 -0.000539734 -0.00053147 -0.000596486 -0.000587079 -0.00053147 -0.00052345 -0.000587079 -0.000578463 -0.000596486 -0.000587079 -0.000636672 -0.00062689 -0.000587079 -0.000578463 -0.00062689 -0.000618298 -0.000655675 -0.00064917 -0.000687359 -0.000667645 -0.00064917 -0.000636672 -0.000667645 -0.00065764 -0.000687359 -0.000667645 -0.000652689 -0.00066181 -0.000667645 -0.00065764 -0.00066181 -0.000662822 -0.000636672 -0.00062689 -0.00065764 -0.000649939 -0.00062689 -0.000618298 -0.000649939 -0.00064214 -0.00065764 -0.000649939 -0.000662822 -0.000657184 -0.000649939 -0.00064214 -0.000657184 -0.000650022 -0.000187665 -0.000184044 -0.000284722 -0.00027983 -0.000184044 -0.000180373 -0.00027983 -0.000274919 -0.000284722 -0.00027983 -0.000374539 -0.000368565 -0.00027983 -0.000274919 -0.000368565 -0.000362571 -0.000180373 -0.000176155 -0.000274919 -0.000269494 -0.000176155 -0.00017087 -0.000269494 -0.000263012 -0.000274919 -0.000269494 -0.000362571 -0.000356079 -0.000269494 -0.000263012 -0.000356079 -0.000348519 -0.000374539 -0.000368565 -0.000454828 -0.000447927 -0.000368565 -0.000362571 -0.000447927 -0.000441017 -0.000454828 -0.000447927 -0.00052345 -0.000515799 -0.000447927 -0.000441017 -0.000515799 -0.000508163 -0.000362571 -0.000356079 -0.000441017 -0.000433615 -0.000356079 -0.000348519 -0.000433615 -0.000425122 -0.000441017 -0.000433615 -0.000508163 -0.000500034 -0.000433615 -0.000425122 -0.000500034 -0.000490777 -0.00017087 -0.000164048 -0.000263012 -0.00025493 -0.000164048 -0.000155331 -0.00025493 -0.000244751 -0.000263012 -0.00025493 -0.000348519 -0.000339276 -0.00025493 -0.000244751 -0.000339276 -0.000327717 -0.000155331 -0.000144511 -0.000244751 -0.000232036 -0.000144511 -0.000131539 -0.000232036 -0.000216394 -0.000244751 -0.000232036 -0.000327717 -0.000313187 -0.000232036 -0.000216394 -0.000313187 -0.000294977 -0.000348519 -0.000339276 -0.000425122 -0.000414853 -0.000339276 -0.000327717 -0.000414853 -0.000402047 -0.000425122 -0.000414853 -0.000490777 -0.000479643 -0.000414853 -0.000402047 -0.000479643 -0.000465763 -0.000327717 -0.000313187 -0.000402047 -0.000385852 -0.000313187 -0.000294977 -0.000385852 -0.000365283 -0.000402047 -0.000385852 -0.000465763 -0.000448118 -0.000385852 -0.000365283 -0.000448118 -0.000425493 -0.00052345 -0.000515799 -0.000578463 -0.000570331 -0.000515799 -0.000508163 -0.000570331 -0.000562213 -0.000578463 -0.000570331 -0.000618298 -0.000610085 -0.000570331 -0.000562213 -0.000610085 -0.000601752 -0.000508163 -0.000500034 -0.000562213 -0.000553563 -0.000500034 -0.000490777 -0.000553563 -0.000543728 -0.000562213 -0.000553563 -0.000601752 -0.000592792 -0.000553563 -0.000543728 -0.000592792 -0.000582568 -0.000618298 -0.000610085 -0.00064214 -0.000634169 -0.000610085 -0.000601752 -0.000634169 -0.000625818 -0.00064214 -0.000634169 -0.000650022 -0.000642216 -0.000634169 -0.000625818 -0.000642216 -0.000633892 -0.000601752 -0.000592792 -0.000625818 -0.000616719 -0.000592792 -0.000582568 -0.000616719 -0.00060628 -0.000625818 -0.000616719 -0.000633892 -0.000624758 -0.000616719 -0.00060628 -0.000624758 -0.000614252 -0.000490777 -0.000479643 -0.000543728 -0.000531914 -0.000479643 -0.000465763 -0.000531914 -0.000517167 -0.000543728 -0.000531914 -0.000582568 -0.00057027 -0.000531914 -0.000517167 -0.00057027 -0.00055489 -0.000465763 -0.000448118 -0.000517167 -0.00049834 -0.000448118 -0.000425493 -0.00049834 -0.000474033 -0.000517167 -0.00049834 -0.00055489 -0.000535189 -0.00049834 -0.000474033 -0.000535189 -0.000509637 -0.000582568 -0.00057027 -0.00060628 -0.000593695 -0.00057027 -0.00055489 -0.000593695 -0.00057793 -0.00060628 -0.000593695 -0.000614252 -0.000601573 -0.000593695 -0.00057793 -0.000601573 -0.000585678 -0.00055489 -0.000535189 -0.00057793 -0.000557693 -0.000535189 -0.000509637 -0.000557693 -0.000531377 -0.00057793 -0.000557693 -0.000585678 -0.00056526 -0.000557693 -0.000531377 -0.00056526 -0.000538686 -0.000529472 -0.000581177 -0.000524219 -0.000575639 -0.000581177 -0.000625875 -0.000575639 -0.000620004 -0.000524219 -0.000575639 -0.000508489 -0.000559052 -0.000575639 -0.000620004 -0.000559052 -0.00060242 -0.000625875 -0.000664071 -0.000620004 -0.000657846 -0.000664071 -0.00069645 -0.000657846 -0.000689879 -0.000620004 -0.000657846 -0.00060242 -0.000639212 -0.000657846 -0.000689879 -0.000639212 -0.00067022 -0.000508489 -0.000559052 -0.000482357 -0.000531491 -0.000559052 -0.00060242 -0.000531491 -0.000573212 -0.000482357 -0.000531491 -0.000445933 -0.000493062 -0.000531491 -0.000573212 -0.000493062 -0.000532509 -0.00060242 -0.000639212 -0.000573212 -0.000608289 -0.000639212 -0.00067022 -0.000608289 -0.000637639 -0.000573212 -0.000608289 -0.000532509 -0.000565268 -0.000608289 -0.000637639 -0.000565268 -0.000592409 -0.000445933 -0.000493062 -0.000399345 -0.000443839 -0.000493062 -0.000532509 -0.000443839 -0.000480465 -0.000399345 -0.000443839 -0.000342359 -0.000383969 -0.000443839 -0.000480465 -0.000383969 -0.000417362 -0.000532509 -0.000565268 -0.000480465 -0.000510414 -0.000565268 -0.000592409 -0.000510414 -0.000534881 -0.000480465 -0.000510414 -0.000417362 -0.000443936 -0.000510414 -0.000534881 -0.000443936 -0.000465443 -0.000417362 -0.000443936 -0.000342631 -0.000365857 -0.000443936 -0.000465443 -0.000365857 -0.000384515 -0.000342631 -0.000365857 -0.000256646 -0.000276428 -0.000365857 -0.000384515 -0.000276428 -0.000292578 -0.000256646 -0.000276428 -0.000158547 -0.000175565 -0.000276428 -0.000292578 -0.000175565 -0.000190106 -0.000158547 -0.000175565 -4.72785e-05 -6.3038e-05 -0.000175565 -0.000190106 -6.3038e-05 -7.76709e-05 -0.00069645 -0.00072379 -0.000689879 -0.000716901 -0.00072379 -0.000746894 -0.000716901 -0.000739729 -0.000689879 -0.000716901 -0.00067022 -0.000696306 -0.000716901 -0.000739729 -0.000696306 -0.000718326 -0.000746894 -0.000766518 -0.000739729 -0.000759127 -0.000766518 -0.000783303 -0.000759127 -0.000775739 -0.000739729 -0.000759127 -0.000718326 -0.000737067 -0.000759127 -0.000775739 -0.000737067 -0.000753177 -0.00067022 -0.000696306 -0.000637639 -0.000662223 -0.000696306 -0.000718326 -0.000662223 -0.000682962 -0.000637639 -0.000662223 -0.000592409 -0.000615014 -0.000662223 -0.000682962 -0.000615014 -0.000634099 -0.000718326 -0.000737067 -0.000682962 -0.000700673 -0.000737067 -0.000753177 -0.000700673 -0.00071601 -0.000682962 -0.000700673 -0.000634099 -0.00065051 -0.000700673 -0.00071601 -0.00065051 -0.000664897 -0.000783303 -0.000797733 -0.000775739 -0.000790045 -0.000797733 -0.000810121 -0.000790045 -0.000802356 -0.000775739 -0.000790045 -0.000753177 -0.000767131 -0.000790045 -0.000802356 -0.000767131 -0.000779223 -0.000810121 -0.000820612 -0.000802356 -0.000812809 -0.000820612 -0.000829183 -0.000812809 -0.000821374 -0.000802356 -0.000812809 -0.000779223 -0.00078957 -0.000812809 -0.000821374 -0.00078957 -0.000798118 -0.000753177 -0.000767131 -0.00071601 -0.000729432 -0.000767131 -0.000779223 -0.000729432 -0.000741207 -0.00071601 -0.000729432 -0.000664897 -0.000677692 -0.000729432 -0.000741207 -0.000677692 -0.000689116 -0.000779223 -0.00078957 -0.000741207 -0.000751412 -0.00078957 -0.000798118 -0.000751412 -0.000759954 -0.000741207 -0.000751412 -0.000689116 -0.000699191 -0.000751412 -0.000759954 -0.000699191 -0.000707769 -0.000592409 -0.000615014 -0.000534881 -0.000555172 -0.000615014 -0.000634099 -0.000555172 -0.000572382 -0.000534881 -0.000555172 -0.000465443 -0.000483307 -0.000555172 -0.000572382 -0.000483307 -0.000498642 -0.000634099 -0.00065051 -0.000572382 -0.000587373 -0.00065051 -0.000664897 -0.000587373 -0.000600769 -0.000572382 -0.000587373 -0.000498642 -0.000512293 -0.000587373 -0.000600769 -0.000512293 -0.000524828 -0.000465443 -0.000483307 -0.000384515 -0.000400147 -0.000483307 -0.000498642 -0.000400147 -0.000413893 -0.000384515 -0.000400147 -0.000292578 -0.000306535 -0.000400147 -0.000413893 -0.000306535 -0.000319335 -0.000498642 -0.000512293 -0.000413893 -0.000426537 -0.000512293 -0.000524828 -0.000426537 -0.000438542 -0.000413893 -0.000426537 -0.000319335 -0.000331608 -0.000426537 -0.000438542 -0.000331608 -0.000343638 -0.000664897 -0.000677692 -0.000600769 -0.000612952 -0.000677692 -0.000689116 -0.000612952 -0.000624076 -0.000600769 -0.000612952 -0.000524828 -0.000536547 -0.000612952 -0.000624076 -0.000536547 -0.000547518 -0.000689116 -0.000699191 -0.000624076 -0.000634092 -0.000699191 -0.000707769 -0.000634092 -0.000642791 -0.000624076 -0.000634092 -0.000547518 -0.000557611 -0.000634092 -0.000642791 -0.000557611 -0.000566552 -0.000524828 -0.000536547 -0.000438542 -0.000450092 -0.000536547 -0.000547518 -0.000450092 -0.000461155 -0.000438542 -0.000450092 -0.000343638 -0.000355463 -0.000450092 -0.000461155 -0.000355463 -0.00036695 -0.000547518 -0.000557611 -0.000461155 -0.000471521 -0.000557611 -0.000566552 -0.000471521 -0.000480858 -0.000461155 -0.000471521 -0.00036695 -0.000377834 -0.000471521 -0.000480858 -0.000377834 -0.000387738 -0.000829183 -0.000835677 -0.000821374 -0.000827884 -0.000835677 -0.000839802 -0.000827884 -0.000832037 -0.000821374 -0.000827884 -0.000798118 -0.000804676 -0.000827884 -0.000832037 -0.000804676 -0.000808922 -0.000839802 -0.000841124 -0.000832037 -0.0008334 -0.000841124 -0.000839077 -0.0008334 -0.000831409 -0.000832037 -0.0008334 -0.000808922 -0.000810413 -0.0008334 -0.000831409 -0.000810413 -0.000808592 -0.000798118 -0.000804676 -0.000759954 -0.000766603 -0.000804676 -0.000808922 -0.000766603 -0.000771012 -0.000759954 -0.000766603 -0.000707769 -0.000714576 -0.000766603 -0.000771012 -0.000714576 -0.000719229 -0.000808922 -0.000810413 -0.000771012 -0.000772724 -0.000810413 -0.000808592 -0.000772724 -0.000771186 -0.000771012 -0.000772724 -0.000719229 -0.000721254 -0.000772724 -0.000771186 -0.000721254 -0.000720107 -0.000839077 -0.000832962 -0.000831409 -0.00082537 -0.000832962 -0.000821925 -0.00082537 -0.00081444 -0.000831409 -0.00082537 -0.000808592 -0.000802781 -0.00082537 -0.00081444 -0.000802781 -0.000792168 -0.000821925 -0.000804921 -0.00081444 -0.000797591 -0.000804921 -0.000780668 -0.000797591 -0.000773562 -0.00081444 -0.000797591 -0.000792168 -0.000775776 -0.000797591 -0.000773562 -0.000775776 -0.000752414 -0.000808592 -0.000802781 -0.000771186 -0.000765748 -0.000802781 -0.000792168 -0.000765748 -0.000755653 -0.000771186 -0.000765748 -0.000720107 -0.000715179 -0.000765748 -0.000755653 -0.000715179 -0.000705784 -0.000792168 -0.000775776 -0.000755653 -0.000740005 -0.000775776 -0.000752414 -0.000740005 -0.000717728 -0.000755653 -0.000740005 -0.000705784 -0.000691141 -0.000740005 -0.000717728 -0.000691141 -0.000670327 -0.000707769 -0.000714576 -0.000642791 -0.000649844 -0.000714576 -0.000719229 -0.000649844 -0.000654829 -0.000642791 -0.000649844 -0.000566552 -0.000573959 -0.000649844 -0.000654829 -0.000573959 -0.000579373 -0.000719229 -0.000721254 -0.000654829 -0.00065726 -0.000721254 -0.000720107 -0.00065726 -0.000656607 -0.000654829 -0.00065726 -0.000579373 -0.000582299 -0.00065726 -0.000656607 -0.000582299 -0.000582229 -0.000566552 -0.000573959 -0.000480858 -0.000488737 -0.000573959 -0.000579373 -0.000488737 -0.000494676 -0.000480858 -0.000488737 -0.000387738 -0.000396209 -0.000488737 -0.000494676 -0.000396209 -0.000402754 -0.000579373 -0.000582299 -0.000494676 -0.000498177 -0.000582299 -0.000582229 -0.000498177 -0.000498761 -0.000494676 -0.000498177 -0.000402754 -0.000406888 -0.000498177 -0.000498761 -0.000406888 -0.000408174 -0.000720107 -0.000715179 -0.000656607 -0.000652308 -0.000715179 -0.000705784 -0.000652308 -0.000643771 -0.000656607 -0.000652308 -0.000582229 -0.00057866 -0.000652308 -0.000643771 -0.00057866 -0.000571109 -0.000705784 -0.000691141 -0.000643771 -0.000