# vtk DataFile Version 3.0
#This file was generated by the deal.II library on 2022/11/17 at 22:30:30
ASCII
DATASET UNSTRUCTURED_GRID

POINTS 4096 double
0 0.5 0
0.03125 0.5 0
0 0.53125 0
0.03125 0.53125 0
0.03125 0.5 0
0.0625 0.5 0
0.03125 0.53125 0
0.0625 0.53125 0
0 0.53125 0
0.03125 0.53125 0
0 0.5625 0
0.03125 0.5625 0
0.03125 0.53125 0
0.0625 0.53125 0
0.03125 0.5625 0
0.0625 0.5625 0
0.0625 0.5 0
0.09375 0.5 0
0.0625 0.53125 0
0.09375 0.53125 0
0.09375 0.5 0
0.125 0.5 0
0.09375 0.53125 0
0.125 0.53125 0
0.0625 0.53125 0
0.09375 0.53125 0
0.0625 0.5625 0
0.09375 0.5625 0
0.09375 0.53125 0
0.125 0.53125 0
0.09375 0.5625 0
0.125 0.5625 0
0 0.5625 0
0.03125 0.5625 0
0 0.59375 0
0.03125 0.59375 0
0.03125 0.5625 0
0.0625 0.5625 0
0.03125 0.59375 0
0.0625 0.59375 0
0 0.59375 0
0.03125 0.59375 0
0 0.625 0
0.03125 0.625 0
0.03125 0.59375 0
0.0625 0.59375 0
0.03125 0.625 0
0.0625 0.625 0
0.0625 0.5625 0
0.09375 0.5625 0
0.0625 0.59375 0
0.09375 0.59375 0
0.09375 0.5625 0
0.125 0.5625 0
0.09375 0.59375 0
0.125 0.59375 0
0.0625 0.59375 0
0.09375 0.59375 0
0.0625 0.625 0
0.09375 0.625 0
0.09375 0.59375 0
0.125 0.59375 0
0.09375 0.625 0
0.125 0.625 0
0.125 0.5 0
0.15625 0.5 0
0.125 0.53125 0
0.15625 0.53125 0
0.15625 0.5 0
0.1875 0.5 0
0.15625 0.53125 0
0.1875 0.53125 0
0.125 0.53125 0
0.15625 0.53125 0
0.125 0.5625 0
0.15625 0.5625 0
0.15625 0.53125 0
0.1875 0.53125 0
0.15625 0.5625 0
0.1875 0.5625 0
0.1875 0.5 0
0.21875 0.5 0
0.1875 0.53125 0
0.21875 0.53125 0
0.21875 0.5 0
0.25 0.5 0
0.21875 0.53125 0
0.25 0.53125 0
0.1875 0.53125 0
0.21875 0.53125 0
0.1875 0.5625 0
0.21875 0.5625 0
0.21875 0.53125 0
0.25 0.53125 0
0.21875 0.5625 0
0.25 0.5625 0
0.125 0.5625 0
0.15625 0.5625 0
0.125 0.59375 0
0.15625 0.59375 0
0.15625 0.5625 0
0.1875 0.5625 0
0.15625 0.59375 0
0.1875 0.59375 0
0.125 0.59375 0
0.15625 0.59375 0
0.125 0.625 0
0.15625 0.625 0
0.15625 0.59375 0
0.1875 0.59375 0
0.15625 0.625 0
0.1875 0.625 0
0.1875 0.5625 0
0.21875 0.5625 0
0.1875 0.59375 0
0.21875 0.59375 0
0.21875 0.5625 0
0.25 0.5625 0
0.21875 0.59375 0
0.25 0.59375 0
0.1875 0.59375 0
0.21875 0.59375 0
0.1875 0.625 0
0.21875 0.625 0
0.21875 0.59375 0
0.25 0.59375 0
0.21875 0.625 0
0.25 0.625 0
0 0.625 0
0.03125 0.625 0
0 0.65625 0
0.03125 0.65625 0
0.03125 0.625 0
0.0625 0.625 0
0.03125 0.65625 0
0.0625 0.65625 0
0 0.65625 0
0.03125 0.65625 0
0 0.6875 0
0.03125 0.6875 0
0.03125 0.65625 0
0.0625 0.65625 0
0.03125 0.6875 0
0.0625 0.6875 0
0.0625 0.625 0
0.09375 0.625 0
0.0625 0.65625 0
0.09375 0.65625 0
0.09375 0.625 0
0.125 0.625 0
0.09375 0.65625 0
0.125 0.65625 0
0.0625 0.65625 0
0.09375 0.65625 0
0.0625 0.6875 0
0.09375 0.6875 0
0.09375 0.65625 0
0.125 0.65625 0
0.09375 0.6875 0
0.125 0.6875 0
0 0.6875 0
0.03125 0.6875 0
0 0.71875 0
0.03125 0.71875 0
0.03125 0.6875 0
0.0625 0.6875 0
0.03125 0.71875 0
0.0625 0.71875 0
0 0.71875 0
0.03125 0.71875 0
0 0.75 0
0.03125 0.75 0
0.03125 0.71875 0
0.0625 0.71875 0
0.03125 0.75 0
0.0625 0.75 0
0.0625 0.6875 0
0.09375 0.6875 0
0.0625 0.71875 0
0.09375 0.71875 0
0.09375 0.6875 0
0.125 0.6875 0
0.09375 0.71875 0
0.125 0.71875 0
0.0625 0.71875 0
0.09375 0.71875 0
0.0625 0.75 0
0.09375 0.75 0
0.09375 0.71875 0
0.125 0.71875 0
0.09375 0.75 0
0.125 0.75 0
0.125 0.625 0
0.15625 0.625 0
0.125 0.65625 0
0.15625 0.65625 0
0.15625 0.625 0
0.1875 0.625 0
0.15625 0.65625 0
0.1875 0.65625 0
0.125 0.65625 0
0.15625 0.65625 0
0.125 0.6875 0
0.15625 0.6875 0
0.15625 0.65625 0
0.1875 0.65625 0
0.15625 0.6875 0
0.1875 0.6875 0
0.1875 0.625 0
0.21875 0.625 0
0.1875 0.65625 0
0.21875 0.65625 0
0.21875 0.625 0
0.25 0.625 0
0.21875 0.65625 0
0.25 0.65625 0
0.1875 0.65625 0
0.21875 0.65625 0
0.1875 0.6875 0
0.21875 0.6875 0
0.21875 0.65625 0
0.25 0.65625 0
0.21875 0.6875 0
0.25 0.6875 0
0.125 0.6875 0
0.15625 0.6875 0
0.125 0.71875 0
0.15625 0.71875 0
0.15625 0.6875 0
0.1875 0.6875 0
0.15625 0.71875 0
0.1875 0.71875 0
0.125 0.71875 0
0.15625 0.71875 0
0.125 0.75 0
0.15625 0.75 0
0.15625 0.71875 0
0.1875 0.71875 0
0.15625 0.75 0
0.1875 0.75 0
0.1875 0.6875 0
0.21875 0.6875 0
0.1875 0.71875 0
0.21875 0.71875 0
0.21875 0.6875 0
0.25 0.6875 0
0.21875 0.71875 0
0.25 0.71875 0
0.1875 0.71875 0
0.21875 0.71875 0
0.1875 0.75 0
0.21875 0.75 0
0.21875 0.71875 0
0.25 0.71875 0
0.21875 0.75 0
0.25 0.75 0
0.25 0.5 0
0.28125 0.5 0
0.25 0.53125 0
0.28125 0.53125 0
0.28125 0.5 0
0.3125 0.5 0
0.28125 0.53125 0
0.3125 0.53125 0
0.25 0.53125 0
0.28125 0.53125 0
0.25 0.5625 0
0.28125 0.5625 0
0.28125 0.53125 0
0.3125 0.53125 0
0.28125 0.5625 0
0.3125 0.5625 0
0.3125 0.5 0
0.34375 0.5 0
0.3125 0.53125 0
0.34375 0.53125 0
0.34375 0.5 0
0.375 0.5 0
0.34375 0.53125 0
0.375 0.53125 0
0.3125 0.53125 0
0.34375 0.53125 0
0.3125 0.5625 0
0.34375 0.5625 0
0.34375 0.53125 0
0.375 0.53125 0
0.34375 0.5625 0
0.375 0.5625 0
0.25 0.5625 0
0.28125 0.5625 0
0.25 0.59375 0
0.28125 0.59375 0
0.28125 0.5625 0
0.3125 0.5625 0
0.28125 0.59375 0
0.3125 0.59375 0
0.25 0.59375 0
0.28125 0.59375 0
0.25 0.625 0
0.28125 0.625 0
0.28125 0.59375 0
0.3125 0.59375 0
0.28125 0.625 0
0.3125 0.625 0
0.3125 0.5625 0
0.34375 0.5625 0
0.3125 0.59375 0
0.34375 0.59375 0
0.34375 0.5625 0
0.375 0.5625 0
0.34375 0.59375 0
0.375 0.59375 0
0.3125 0.59375 0
0.34375 0.59375 0
0.3125 0.625 0
0.34375 0.625 0
0.34375 0.59375 0
0.375 0.59375 0
0.34375 0.625 0
0.375 0.625 0
0.375 0.5 0
0.40625 0.5 0
0.375 0.53125 0
0.40625 0.53125 0
0.40625 0.5 0
0.4375 0.5 0
0.40625 0.53125 0
0.4375 0.53125 0
0.375 0.53125 0
0.40625 0.53125 0
0.375 0.5625 0
0.40625 0.5625 0
0.40625 0.53125 0
0.4375 0.53125 0
0.40625 0.5625 0
0.4375 0.5625 0
0.4375 0.5 0
0.46875 0.5 0
0.4375 0.53125 0
0.46875 0.53125 0
0.46875 0.5 0
0.5 0.5 0
0.46875 0.53125 0
0.5 0.53125 0
0.4375 0.53125 0
0.46875 0.53125 0
0.4375 0.5625 0
0.46875 0.5625 0
0.46875 0.53125 0
0.5 0.53125 0
0.46875 0.5625 0
0.5 0.5625 0
0.375 0.5625 0
0.40625 0.5625 0
0.375 0.59375 0
0.40625 0.59375 0
0.40625 0.5625 0
0.4375 0.5625 0
0.40625 0.59375 0
0.4375 0.59375 0
0.375 0.59375 0
0.40625 0.59375 0
0.375 0.625 0
0.40625 0.625 0
0.40625 0.59375 0
0.4375 0.59375 0
0.40625 0.625 0
0.4375 0.625 0
0.4375 0.5625 0
0.46875 0.5625 0
0.4375 0.59375 0
0.46875 0.59375 0
0.46875 0.5625 0
0.5 0.5625 0
0.46875 0.59375 0
0.5 0.59375 0
0.4375 0.59375 0
0.46875 0.59375 0
0.4375 0.625 0
0.46875 0.625 0
0.46875 0.59375 0
0.5 0.59375 0
0.46875 0.625 0
0.5 0.625 0
0.25 0.625 0
0.28125 0.625 0
0.25 0.65625 0
0.28125 0.65625 0
0.28125 0.625 0
0.3125 0.625 0
0.28125 0.65625 0
0.3125 0.65625 0
0.25 0.65625 0
0.28125 0.65625 0
0.25 0.6875 0
0.28125 0.6875 0
0.28125 0.65625 0
0.3125 0.65625 0
0.28125 0.6875 0
0.3125 0.6875 0
0.3125 0.625 0
0.34375 0.625 0
0.3125 0.65625 0
0.34375 0.65625 0
0.34375 0.625 0
0.375 0.625 0
0.34375 0.65625 0
0.375 0.65625 0
0.3125 0.65625 0
0.34375 0.65625 0
0.3125 0.6875 0
0.34375 0.6875 0
0.34375 0.65625 0
0.375 0.65625 0
0.34375 0.6875 0
0.375 0.6875 0
0.25 0.6875 0
0.28125 0.6875 0
0.25 0.71875 0
0.28125 0.71875 0
0.28125 0.6875 0
0.3125 0.6875 0
0.28125 0.71875 0
0.3125 0.71875 0
0.25 0.71875 0
0.28125 0.71875 0
0.25 0.75 0
0.28125 0.75 0
0.28125 0.71875 0
0.3125 0.71875 0
0.28125 0.75 0
0.3125 0.75 0
0.3125 0.6875 0
0.34375 0.6875 0
0.3125 0.71875 0
0.34375 0.71875 0
0.34375 0.6875 0
0.375 0.6875 0
0.34375 0.71875 0
0.375 0.71875 0
0.3125 0.71875 0
0.34375 0.71875 0
0.3125 0.75 0
0.34375 0.75 0
0.34375 0.71875 0
0.375 0.71875 0
0.34375 0.75 0
0.375 0.75 0
0.375 0.625 0
0.40625 0.625 0
0.375 0.65625 0
0.40625 0.65625 0
0.40625 0.625 0
0.4375 0.625 0
0.40625 0.65625 0
0.4375 0.65625 0
0.375 0.65625 0
0.40625 0.65625 0
0.375 0.6875 0
0.40625 0.6875 0
0.40625 0.65625 0
0.4375 0.65625 0
0.40625 0.6875 0
0.4375 0.6875 0
0.4375 0.625 0
0.46875 0.625 0
0.4375 0.65625 0
0.46875 0.65625 0
0.46875 0.625 0
0.5 0.625 0
0.46875 0.65625 0
0.5 0.65625 0
0.4375 0.65625 0
0.46875 0.65625 0
0.4375 0.6875 0
0.46875 0.6875 0
0.46875 0.65625 0
0.5 0.65625 0
0.46875 0.6875 0
0.5 0.6875 0
0.375 0.6875 0
0.40625 0.6875 0
0.375 0.71875 0
0.40625 0.71875 0
0.40625 0.6875 0
0.4375 0.6875 0
0.40625 0.71875 0
0.4375 0.71875 0
0.375 0.71875 0
0.40625 0.71875 0
0.375 0.75 0
0.40625 0.75 0
0.40625 0.71875 0
0.4375 0.71875 0
0.40625 0.75 0
0.4375 0.75 0
0.4375 0.6875 0
0.46875 0.6875 0
0.4375 0.71875 0
0.46875 0.71875 0
0.46875 0.6875 0
0.5 0.6875 0
0.46875 0.71875 0
0.5 0.71875 0
0.4375 0.71875 0
0.46875 0.71875 0
0.4375 0.75 0
0.46875 0.75 0
0.46875 0.71875 0
0.5 0.71875 0
0.46875 0.75 0
0.5 0.75 0
0 0.75 0
0.03125 0.75 0
0 0.78125 0
0.03125 0.78125 0
0.03125 0.75 0
0.0625 0.75 0
0.03125 0.78125 0
0.0625 0.78125 0
0 0.78125 0
0.03125 0.78125 0
0 0.8125 0
0.03125 0.8125 0
0.03125 0.78125 0
0.0625 0.78125 0
0.03125 0.8125 0
0.0625 0.8125 0
0.0625 0.75 0
0.09375 0.75 0
0.0625 0.78125 0
0.09375 0.78125 0
0.09375 0.75 0
0.125 0.75 0
0.09375 0.78125 0
0.125 0.78125 0
0.0625 0.78125 0
0.09375 0.78125 0
0.0625 0.8125 0
0.09375 0.8125 0
0.09375 0.78125 0
0.125 0.78125 0
0.09375 0.8125 0
0.125 0.8125 0
0 0.8125 0
0.03125 0.8125 0
0 0.84375 0
0.03125 0.84375 0
0.03125 0.8125 0
0.0625 0.8125 0
0.03125 0.84375 0
0.0625 0.84375 0
0 0.84375 0
0.03125 0.84375 0
0 0.875 0
0.03125 0.875 0
0.03125 0.84375 0
0.0625 0.84375 0
0.03125 0.875 0
0.0625 0.875 0
0.0625 0.8125 0
0.09375 0.8125 0
0.0625 0.84375 0
0.09375 0.84375 0
0.09375 0.8125 0
0.125 0.8125 0
0.09375 0.84375 0
0.125 0.84375 0
0.0625 0.84375 0
0.09375 0.84375 0
0.0625 0.875 0
0.09375 0.875 0
0.09375 0.84375 0
0.125 0.84375 0
0.09375 0.875 0
0.125 0.875 0
0.125 0.75 0
0.15625 0.75 0
0.125 0.78125 0
0.15625 0.78125 0
0.15625 0.75 0
0.1875 0.75 0
0.15625 0.78125 0
0.1875 0.78125 0
0.125 0.78125 0
0.15625 0.78125 0
0.125 0.8125 0
0.15625 0.8125 0
0.15625 0.78125 0
0.1875 0.78125 0
0.15625 0.8125 0
0.1875 0.8125 0
0.1875 0.75 0
0.21875 0.75 0
0.1875 0.78125 0
0.21875 0.78125 0
0.21875 0.75 0
0.25 0.75 0
0.21875 0.78125 0
0.25 0.78125 0
0.1875 0.78125 0
0.21875 0.78125 0
0.1875 0.8125 0
0.21875 0.8125 0
0.21875 0.78125 0
0.25 0.78125 0
0.21875 0.8125 0
0.25 0.8125 0
0.125 0.8125 0
0.15625 0.8125 0
0.125 0.84375 0
0.15625 0.84375 0
0.15625 0.8125 0
[...]
POINT_DATA 4096
SCALARS x_dis double 1
LOOKUP_TABLE default
6.29044e-06 4.45806e-06 9.00713e-06 6.43922e-06 4.45806e-06 3.31221e-06 6.43922e-06 4.80349e-06 9.00713e-06 6.43922e-06 1.275e-05 9.20486e-06 6.43922e-06 4.80349e-06 9.20486e-06 6.90102e-06 3.31221e-06 2.57761e-06 4.80349e-06 3.74023e-06 2.57761e-06 2.07971e-06 3.74023e-06 3.01311e-06 4.80349e-06 3.74023e-06 6.90102e-06 5.37997e-06 3.74023e-06 3.01311e-06 5.37997e-06 4.32831e-06 1.275e-05 9.20486e-06 1.7827e-05 1.30138e-05 9.20486e-06 6.90102e-06 1.30138e-05 9.81677e-06 1.7827e-05 1.30138e-05 2.45975e-05 1.81835e-05 1.30138e-05 9.81677e-06 1.81835e-05 1.3819e-05 6.90102e-06 5.37997e-06 9.81677e-06 7.66819e-06 5.37997e-06 4.32831e-06 7.66819e-06 6.16266e-06 9.81677e-06 7.66819e-06 1.3819e-05 1.08249e-05 7.66819e-06 6.16266e-06 1.08249e-05 8.69251e-06 2.07971e-06 1.71454e-06 3.01311e-06 2.47771e-06 1.71454e-06 1.42382e-06 2.47771e-06 2.05176e-06 3.01311e-06 2.47771e-06 4.32831e-06 3.54926e-06 2.47771e-06 2.05176e-06 3.54926e-06 2.92875e-06 1.42382e-06 1.17686e-06 2.05176e-06 1.69162e-06 1.17686e-06 9.58403e-07 1.69162e-06 1.37562e-06 2.05176e-06 1.69162e-06 2.92875e-06 2.40578e-06 1.69162e-06 1.37562e-06 2.40578e-06 1.94993e-06 4.32831e-06 3.54926e-06 6.16266e-06 5.03811e-06 3.54926e-06 2.92875e-06 5.03811e-06 4.13999e-06 6.16266e-06 5.03811e-06 8.69251e-06 7.08271e-06 5.03811e-06 4.13999e-06 7.08271e-06 5.79184e-06 2.92875e-06 2.40578e-06 4.13999e-06 3.38489e-06 2.40578e-06 1.94993e-06 3.38489e-06 2.73111e-06 4.13999e-06 3.38489e-06 5.79184e-06 4.70897e-06 3.38489e-06 2.73111e-06 4.70897e-06 3.77824e-06 2.45975e-05 1.81835e-05 3.34591e-05 2.5089e-05 1.81835e-05 1.3819e-05 2.5089e-05 1.92366e-05 3.34591e-05 2.5089e-05 4.48182e-05 3.41491e-05 2.5089e-05 1.92366e-05 3.41491e-05 2.64537e-05 1.3819e-05 1.08249e-05 1.92366e-05 1.5124e-05 1.08249e-05 8.69251e-06 1.5124e-05 1.2137e-05 1.92366e-05 1.5124e-05 2.64537e-05 2.08901e-05 1.5124e-05 1.2137e-05 2.08901e-05 1.67547e-05 4.48182e-05 3.41491e-05 5.90336e-05 4.57884e-05 3.41491e-05 2.64537e-05 4.57884e-05 3.58814e-05 5.90336e-05 4.57884e-05 7.63164e-05 6.03509e-05 4.57884e-05 3.58814e-05 6.03509e-05 4.78858e-05 2.64537e-05 2.08901e-05 3.58814e-05 2.84761e-05 2.08901e-05 1.67547e-05 2.84761e-05 2.28244e-05 3.58814e-05 2.84761e-05 4.78858e-05 3.82044e-05 2.84761e-05 2.28244e-05 3.82044e-05 3.05985e-05 8.69251e-06 7.08271e-06 1.2137e-05 9.8527e-06 7.08271e-06 5.79184e-06 9.8527e-06 8.01176e-06 1.2137e-05 9.8527e-06 1.67547e-05 1.35445e-05 9.8527e-06 8.01176e-06 1.35445e-05 1.09431e-05 5.79184e-06 4.70897e-06 8.01176e-06 6.47103e-06 4.70897e-06 3.77824e-06 6.47103e-06 5.15743e-06 8.01176e-06 6.47103e-06 1.09431e-05 8.77197e-06 6.47103e-06 5.15743e-06 8.77197e-06 6.93711e-06 1.67547e-05 1.35445e-05 2.28244e-05 1.83649e-05 1.35445e-05 1.09431e-05 1.83649e-05 1.47314e-05 2.28244e-05 1.83649e-05 3.05985e-05 2.44951e-05 1.83649e-05 1.47314e-05 2.44951e-05 1.9497e-05 1.09431e-05 8.77197e-06 1.47314e-05 1.17092e-05 8.77197e-06 6.93711e-06 1.17092e-05 9.17927e-06 1.47314e-05 1.17092e-05 1.9497e-05 1.53569e-05 1.17092e-05 9.17927e-06 1.53569e-05 1.19254e-05 9.58403e-07 7.61154e-07 1.37562e-06 1.0933e-06 7.61154e-07 5.81666e-07 1.0933e-06 8.38984e-07 1.37562e-06 1.0933e-06 1.94993e-06 1.54612e-06 1.0933e-06 8.38984e-07 1.54612e-06 1.18494e-06 5.81666e-07 4.19088e-07 8.38984e-07 6.08516e-07 4.19088e-07 2.76912e-07 6.08516e-07 3.97962e-07 8.38984e-07 6.08516e-07 1.18494e-06 8.56278e-07 6.08516e-07 3.97962e-07 8.56278e-07 5.43512e-07 1.94993e-06 1.54612e-06 2.73111e-06 2.15768e-06 1.54612e-06 1.18494e-06 2.15768e-06 1.65084e-06 2.73111e-06 2.15768e-06 3.77824e-06 2.97137e-06 2.15768e-06 1.65084e-06 2.97137e-06 2.26987e-06 1.18494e-06 8.56278e-07 1.65084e-06 1.19526e-06 8.56278e-07 5.43512e-07 1.19526e-06 7.66924e-07 1.65084e-06 1.19526e-06 2.26987e-06 1.65441e-06 1.19526e-06 7.66924e-07 1.65441e-06 1.09933e-06 2.76912e-07 1.7169e-07 3.97962e-07 2.01061e-07 1.7169e-07 1.52921e-07 2.01061e-07 -1.2791e-09 3.97962e-07 2.01061e-07 5.43512e-07 2.12552e-07 2.01061e-07 -1.2791e-09 2.12552e-07 -2.19032e-07 1.52921e-07 4.46621e-07 -1.2791e-09 -3.83595e-07 4.46621e-07 1.14257e-06 -3.83595e-07 -1.73582e-06 -1.2791e-09 -3.83595e-07 -2.19032e-07 -9.43075e-07 -3.83595e-07 -1.73582e-06 -9.43075e-07 -1.713e-06 5.43512e-07 2.12552e-07 7.66924e-07 3.25559e-07 2.12552e-07 -2.19032e-07 3.25559e-07 -1.91069e-07 7.66924e-07 3.25559e-07 1.09933e-06 5.71466e-07 3.25559e-07 -1.91069e-07 5.71466e-07 4.74946e-08 -2.19032e-07 -9.43075e-07 -1.91069e-07 -7.76716e-07 -9.43075e-07 -1.713e-06 -7.76716e-07 -1.30601e-06 -1.91069e-07 -7.76716e-07 4.74946e-08 -4.63381e-07 -7.76716e-07 -1.30601e-06 -4.63381e-07 -9.0113e-07 3.77824e-06 2.97137e-06 5.15743e-06 4.03311e-06 2.97137e-06 2.26987e-06 4.03311e-06 3.07307e-06 5.15743e-06 4.03311e-06 6.93711e-06 5.38728e-06 4.03311e-06 3.07307e-06 5.38728e-06 4.08702e-06 2.26987e-06 1.65441e-06 3.07307e-06 2.25313e-06 1.65441e-06 1.09933e-06 2.25313e-06 1.54535e-06 3.07307e-06 2.25313e-06 4.08702e-06 3.00287e-06 2.25313e-06 1.54535e-06 3.00287e-06 2.09902e-06 6.93711e-06 5.38728e-06 9.17927e-06 7.07079e-06 5.38728e-06 4.08702e-06 7.07079e-06 5.33089e-06 9.17927e-06 7.07079e-06 1.19254e-05 9.10369e-06 7.07079e-06 5.33089e-06 9.10369e-06 6.81122e-06 4.08702e-06 3.00287e-06 5.33089e-06 3.90935e-06 3.00287e-06 2.09902e-06 3.90935e-06 2.75391e-06 5.33089e-06 3.90935e-06 6.81122e-06 4.97073e-06 3.90935e-06 2.75391e-06 4.97073e-06 3.50383e-06 1.09933e-06 5.71466e-07 1.54535e-06 9.20774e-07 5.71466e-07 4.74946e-08 9.20774e-07 3.5722e-07 1.54535e-06 9.20774e-07 2.09902e-06 1.33877e-06 9.20774e-07 3.5722e-07 1.33877e-06 6.89086e-07 4.74946e-08 -4.63381e-07 3.5722e-07 -1.50463e-07 -4.63381e-07 -9.0113e-07 -1.50463e-07 -5.92414e-07 3.5722e-07 -1.50463e-07 6.89086e-07 1.23744e-07 -1.50463e-07 -5.92414e-07 1.23744e-07 -3.78503e-07 2.09902e-06 1.33877e-06 2.75391e-06 1.81132e-06 1.33877e-06 6.89086e-07 1.81132e-06 1.03013e-06 2.75391e-06 1.81132e-06 3.50383e-06 2.33232e-06 1.81132e-06 1.03013e-06 2.33232e-06 1.38058e-06 6.89086e-07 1.23744e-07 1.03013e-06 3.62389e-07 1.23744e-07 -3.78503e-07 3.62389e-07 -2.37534e-07 1.03013e-06 3.62389e-07 1.38058e-06 5.76927e-07 3.62389e-07 -2.37534e-07 5.76927e-07 -1.47284e-07 7.63164e-05 6.03509e-05 9.65679e-05 7.79405e-05 6.03509e-05 4.78858e-05 7.79405e-05 6.26464e-05 9.65679e-05 7.79405e-05 0.000119154 9.81729e-05 7.79405e-05 6.26464e-05 9.81729e-05 7.99355e-05 4.78858e-05 3.82044e-05 6.26464e-05 5.02527e-05 3.82044e-05 3.05985e-05 5.02527e-05 4.02167e-05 6.26464e-05 5.02527e-05 7.99355e-05 6.44805e-05 5.02527e-05 4.02167e-05 6.44805e-05 5.15797e-05 0.000119154 9.81729e-05 0.000142688 0.000119907 9.81729e-05 7.99355e-05 0.000119907 9.8875e-05 0.000142688 0.000119907 0.000165042 0.000141165 0.000119907 9.8875e-05 0.000141165 0.000117842 7.99355e-05 6.44805e-05 9.8875e-05 8.02403e-05 6.44805e-05 5.15797e-05 8.02403e-05 6.42139e-05 9.8875e-05 8.02403e-05 0.000117842 9.629e-05 8.02403e-05 6.42139e-05 9.629e-05 7.72e-05 3.05985e-05 2.44951e-05 4.02167e-05 3.20277e-05 2.44951e-05 1.9497e-05 3.20277e-05 2.52912e-05 4.02167e-05 3.20277e-05 5.15797e-05 4.08797e-05 3.20277e-05 2.52912e-05 4.08797e-05 3.20372e-05 1.9497e-05 1.53569e-05 2.52912e-05 1.97355e-05 1.53569e-05 1.19254e-05 1.97355e-05 1.51766e-05 2.52912e-05 1.97355e-05 3.20372e-05 2.47737e-05 1.97355e-05 1.51766e-05 2.47737e-05 1.88688e-05 5.15797e-05 4.08797e-05 6.42139e-05 5.06995e-05 4.08797e-05 3.20372e-05 5.06995e-05 3.94697e-05 6.42139e-05 5.06995e-05 7.72e-05 6.08149e-05 5.06995e-05 3.94697e-05 6.08149e-05 4.70994e-05 3.20372e-05 2.47737e-05 3.94697e-05 3.02698e-05 2.47737e-05 1.88688e-05 3.02698e-05 2.28499e-05 3.94697e-05 3.02698e-05 4.70994e-05 3.58702e-05 3.02698e-05 2.28499e-05 3.58702e-05 2.68674e-05 0.000165042 0.000141165 0.000183834 0.000159547 0.000141165 0.000117842 0.000159547 0.000134746 0.000183834 0.000159547 0.000197346 0.000173117 0.000159547 0.000134746 0.000173117 0.0001477 0.000117842 9.629e-05 0.000134746 0.000110954 9.629e-05 7.72e-05 0.000110954 8.92574e-05 0.000134746 0.000110954 0.0001477 0.000122561 0.000110954 8.92574e-05 0.000122561 9.90108e-05 0.000197346 0.000173117 0.000205147 0.000181114 0.000173117 0.0001477 0.000181114 0.000155627 0.000205147 0.000181114 0.000207646 0.00018371 0.000181114 0.000155627 0.00018371 0.000158264 0.0001477 0.000122561 0.000155627 0.000129905 0.000122561 9.90108e-05 0.000129905 0.000105323 0.000155627 0.000129905 0.000158264 0.000132402 0.000129905 0.000105323 0.000132402 0.000107501 7.72e-05 6.08149e-05 8.92574e-05 7.02755e-05 6.08149e-05 4.70994e-05 7.02755e-05 5.42369e-05 8.92574e-05 7.02755e-05 9.90108e-05 7.80152e-05 7.02755e-05 5.42369e-05 7.80152e-05 6.00949e-05 4.70994e-05 3.58702e-05 5.42369e-05 4.10854e-05 3.58702e-05 2.68674e-05 4.10854e-05 3.05805e-05 5.42369e-05 4.10854e-05 6.00949e-05 4.53571e-05 4.10854e-05 3.05805e-05 4.53571e-05 3.36059e-05 9.90108e-05 7.80152e-05 0.000105323 8.30843e-05 7.80152e-05 6.00949e-05 8.30843e-05 6.39478e-05 0.000105323 8.30843e-05 0.000107501 8.48474e-05 8.30843e-05 6.39478e-05 8.48474e-05 6.52919e-05 6.00949e-05 4.53571e-05 6.39478e-05 4.81648e-05 4.53571e-05 3.36059e-05 4.81648e-05 3.55894e-05 6.39478e-05 4.81648e-05 6.52919e-05 4.91459e-05 4.81648e-05 3.55894e-05 4.91459e-05 3.62802e-05 1.19254e-05 9.10369e-06 1.51766e-05 1.14764e-05 9.10369e-06 6.81122e-06 1.14764e-05 8.514e-06 1.51766e-05 1.14764e-05 1.88688e-05 1.41345e-05 1.14764e-05 8.514e-06 1.41345e-05 1.03955e-05 6.81122e-06 4.97073e-06 8.514e-06 6.17259e-06 4.97073e-06 3.50383e-06 6.17259e-06 4.33678e-06 8.514e-06 6.17259e-06 1.03955e-05 7.48172e-06 6.17259e-06 4.33678e-06 7.48172e-06 5.2296e-06 1.88688e-05 1.41345e-05 2.28499e-05 1.69653e-05 1.41345e-05 1.03955e-05 1.69653e-05 1.2374e-05 2.28499e-05 1.69653e-05 2.68674e-05 1.97912e-05 1.69653e-05 1.2374e-05 1.97912e-05 1.43277e-05 1.03955e-05 7.48172e-06 1.2374e-05 8.84113e-06 7.48172e-06 5.2296e-06 8.84113e-06 6.14449e-06 1.2374e-05 8.84113e-06 1.43277e-05 1.01689e-05 8.84113e-06 6.14449e-06 1.01689e-05 7.02849e-06 3.50383e-06 2.33232e-06 4.33678e-06 2.8948e-06 2.33232e-06 1.38058e-06 2.8948e-06 1.74105e-06 4.33678e-06 2.8948e-06 5.2296e-06 3.4853e-06 2.8948e-06 1.74105e-06 3.4853e-06 2.10747e-06 1.38058e-06 5.76927e-07 1.74105e-06 7.76932e-07 5.76927e-07 -1.47284e-07 7.76932e-07 -9.05561e-08 1.74105e-06 7.76932e-07 2.10747e-06 9.67083e-07 7.76932e-07 -9.05561e-08 9.67083e-07 -5.53453e-08 5.2296e-06 3.4853e-06 6.14449e-06 4.08116e-06 3.4853e-06 2.10747e-06 4.08116e-06 2.46936e-06 6.14449e-06 4.08116e-06 7.02849e-06 4.65026e-06 4.08116e-06 2.46936e-06 4.65026e-06 2.81002e-06 2.10747e-06 9.67083e-07 2.46936e-06 1.14693e-06 9.67083e-07 -5.53453e-08 1.14693e-06 -3.37122e-08 2.46936e-06 1.14693e-06 2.81002e-06 1.31165e-06 1.14693e-06 -3.37122e-08 1.31165e-06 -2.05669e-08 2.68674e-05 1.97912e-05 3.05805e-05 2.238e-05 1.97912e-05 1.43277e-05 2.238e-05 1.61012e-05 3.05805e-05 2.238e-05 3.36059e-05 2.44752e-05 2.238e-05 1.61012e-05 2.44752e-05 1.7527e-05 1.43277e-05 1.01689e-05 1.61012e-05 1.13637e-05 1.01689e-05 7.02849e-06 1.13637e-05 7.81715e-06 1.61012e-05 1.13637e-05 1.7527e-05 1.23178e-05 1.13637e-05 7.81715e-06 1.23178e-05 8.44275e-06 3.36059e-05 2.44752e-05 3.55894e-05 2.58438e-05 2.44752e-05 1.7527e-05 2.58438e-05 1.84538e-05 3.55894e-05 2.58438e-05 3.62802e-05 2.6318e-05 2.58438e-05 1.84538e-05 2.6318e-05 1.87754e-05 1.7527e-05 1.23178e-05 1.84538e-05 1.2935e-05 1.23178e-05 8.44275e-06 1.2935e-05 8.84557e-06 1.84538e-05 1.2935e-05 1.87754e-05 1.31486e-05 1.2935e-05 8.84557e-06 1.31486e-05 8.98469e-06 7.02849e-06 4.65026e-06 7.81715e-06 5.15356e-06 4.65026e-06 2.81002e-06 5.15356e-06 3.1083e-06 7.81715e-06 5.15356e-06 8.44275e-06 5.55027e-06 5.15356e-06 3.1083e-06 5.55027e-06 3.34182e-06 2.81002e-06 1.31165e-06 3.1083e-06 1.45343e-06 1.31165e-06 -2.05669e-08 1.45343e-06 -1.27181e-08 3.1083e-06 1.45343e-06 3.34182e-06 1.56326e-06 1.45343e-06 -1.27181e-08 1.56326e-06 -8.21164e-09 8.44275e-06 5.55027e-06 8.84557e-06 5.80462e-06 5.55027e-06 3.34182e-06 5.80462e-06 3.49092e-06 8.84557e-06 5.80462e-06 8.98469e-06 5.89228e-06 5.80462e-06 3.49092e-06 5.89228e-06 3.54219e-06 3.34182e-06 1.56326e-06 3.49092e-06 1.63296e-06 1.56326e-06 -8.21164e-09 1.63296e-06 -5.90198e-09 3.49092e-06 1.63296e-06 3.54219e-06 1.65686e-06 1.63296e-06 -5.90198e-09 1.65686e-06 -5.19346e-09 1.14257e-06 1.10653e-06 -1.73582e-06 -2.08197e-06 1.10653e-06 2.57396e-07 -2.08197e-06 -1.12908e-06 -1.73582e-06 -2.08197e-06 -1.713e-06 -1.98674e-06 -2.08197e-06 -1.12908e-06 -1.98674e-06 -1.67259e-06 2.57396e-07 -4.16594e-07 -1.12908e-06 -8.60835e-07 -4.16594e-07 -8.12798e-07 -8.60835e-07 -8.70942e-07 -1.12908e-06 -8.60835e-07 -1.67259e-06 -1.26417e-06 -8.60835e-07 -8.70942e-07 -1.26417e-06 -1.1338e-06 -1.713e-06 -1.98674e-06 -1.30601e-06 -1.57067e-06 -1.98674e-06 -1.67259e-06 -1.57067e-06 -1.54535e-06 -1.30601e-06 -1.57067e-06 -9.0113e-07 -1.20198e-06 -1.57067e-06 -1.54535e-06 -1.20198e-06 -1.37078e-06 -1.67259e-06 -1.26417e-06 -1.54535e-06 -1.42963e-06 -1.26417e-06 -1.1338e-06 -1.42963e-06 -1.40343e-06 -1.54535e-06 -1.42963e-06 -1.37078e-06 -1.4936e-06 -1.42963e-06 -1.40343e-06 -1.4936e-06 -1.67494e-06 -8.12798e-07 -1.10652e-06 -8.70942e-07 -9.99482e-07 -1.10652e-06 -1.37808e-06 -9.99482e-07 -1.18983e-06 -8.70942e-07 -9.99482e-07 -1.1338e-06 -1.19672e-06 -9.99482e-07 -1.18983e-06 -1.19672e-06 -1.38314e-06 -1.37808e-06 -1.66331e-06 -1.18983e-06 -1.42305e-06 -1.66331e-06 -1.96765e-06 -1.42305e-06 -1.68941e-06 -1.18983e-06 -1.42305e-06 -1.38314e-06 -1.65267e-06 -1.42305e-06 -1.68941e-06 -1.65267e-06 -1.98527e-06 -1.1338e-06 -1.19672e-06 -1.40343e-06 -1.53821e-06 -1.19672e-06 -1.38314e-06 -1.53821e-06 -1.81177e-06 -1.40343e-06 -1.53821e-06 -1.67494e-06 -1.9769e-06 -1.53821e-06 -1.81177e-06 -1.9769e-06 -2.42058e-06 -1.38314e-06 -1.65267e-06 -1.81177e-06 -2.19866e-06 -1.65267e-06 -1.98527e-06 -2.19866e-06 -2.68253e-06 -1.81177e-06 -2.19866e-06 -2.42058e-06 -3.00406e-06 -2.19866e-06 -2.68253e-06 -3.00406e-06 -3.72365e-06 -9.0113e-07 -1.20198e-06 -5.92414e-07 -9.6213e-07 -1.20198e-06 -1.37078e-06 -9.6213e-07 -1.28193e-06 -5.92414e-07 -9.6213e-07 -3.78503e-07 -8.42317e-07 -9.6213e-07 -1.28193e-06 -8.42317e-07 -1.30473e-06 -1.37078e-06 -1.4936e-06 -1.28193e-06 -1.60705e-06 -1.4936e-06 -1.67494e-06 -1.60705e-06 -2.00379e-06 -1.28193e-06 -1.60705e-06 -1.30473e-06 -1.81674e-06 -1.60705e-06 -2.00379e-06 -1.81674e-06 -2.43586e-06 -3.78503e-07 -8.42317e-07 -2.37534e-07 -8.16775e-07 -8.42317e-07 -1.30473e-06 -8.16775e-07 -1.42802e-06 -2.37534e-07 -8.16775e-07 -1.47284e-07 -8.60261e-07 -8.16775e-07 -1.42802e-06 -8.60261e-07 -1.63276e-06 -1.30473e-06 -1.81674e-06 -1.42802e-06 -2.13073e-06 -1.81674e-06 -2.43586e-06 -2.13073e-06 -2.98863e-06 -1.42802e-06 -2.13073e-06 -1.63276e-06 -2.53998e-06 -2.13073e-06 -2.98863e-06 -2.53998e-06 -3.66156e-06 -1.67494e-06 -1.9769e-06 -2.00379e-06 -2.52672e-06 -1.9769e-06 -2.42058e-06 -2.52672e-06 -3.20941e-06 -2.00379e-06 -2.52672e-06 -2.43586e-06 -3.21595e-06 -2.52672e-06 -3.20941e-06 -3.21595e-06 -4.20128e-06 -2.42058e-06 -3.00406e-06 -3.20941e-06 -4.07004e-06 -3.00406e-06 -3.72365e-06 -4.07004e-06 -5.11985e-06 -3.20941e-06 -4.07004e-06 -4.20128e-06 -5.4259e-06 -4.07004e-06 -5.11985e-06 -5.4259e-06 -6.91752e-06 -2.43586e-06 -3.21595e-06 -2.98863e-06 -4.0653e-06 -3.21595e-06 -4.20128e-06 -4.0653e-06 -5.42013e-06 -2.98863e-06 -4.0653e-06 -3.66156e-06 -5.07983e-06 -4.0653e-06 -5.42013e-06 -5.07983e-06 -6.87715e-06 -4.20128e-06 -5.4259e-06 -5.42013e-06 -7.10638e-06 -5.4259e-06 -6.91752e-06 -7.10638e-06 -9.17226e-06 -5.42013e-06 -7.10638e-06 -6.87715e-06 -9.13339e-06 -7.10638e-06 -9.17226e-06 -9.13339e-06 -1.19255e-05 -1.96765e-06 -2.27885e-06 -1.68941e-06 -1.9801e-06 -2.27885e-06 -2.57179e-06 -1.9801e-06 -2.28696e-06 -1.68941e-06 -1.9801e-06 -1.98527e-06 -2.37203e-06 -1.9801e-06 -2.28696e-06 -2.37203e-06 -2.81386e-06 -2.57179e-06 -2.81117e-06 -2.28696e-06 -2.60683e-06 -2.81117e-06 -2.95588e-06 -2.60683e-06 -2.95059e-06 -2.28696e-06 -2.60683e-06 -2.81386e-06 -3.32689e-06 -2.60683e-06 -2.95059e-06 -3.32689e-06 -3.95383e-06 -1.98527e-06 -2.37203e-06 -2.68253e-06 -3.25794e-06 -2.37203e-06 -2.81386e-06 -3.25794e-06 -3.93325e-06 -2.68253e-06 -3.25794e-06 -3.72365e-06 -4.58199e-06 -3.25794e-06 -3.93325e-06 -4.58199e-06 -5.59671e-06 -2.81386e-06 -3.32689e-06 -3.93325e-06 -4.73972e-06 -3.32689e-06 -3.95383e-06 -4.73972e-06 -5.74791e-06 -3.93325e-06 -4.73972e-06 -5.59671e-06 -6.81529e-06 -4.73972e-06 -5.74791e-06 -6.81529e-06 -8.33933e-06 -2.95588e-06 -2.97189e-06 -2.95059e-06 -3.35741e-06 -2.97189e-06 -2.8662e-06 -3.35741e-06 -3.91089e-06 -2.95059e-06 -3.35741e-06 -3.95383e-06 -4.77968e-06 -3.35741e-06 -3.91089e-06 -4.77968e-06 -5.94818e-06 -2.8662e-06 -2.76908e-06 -3.91089e-06 -4.73853e-06 -2.76908e-06 -3.04821e-06 -4.73853e-06 -6.0249e-06 -3.91089e-06 -4.73853e-06 -5.94818e-06 -7.68675e-06 -4.73853e-06 -6.0249e-06 -7.68675e-06 -1.04095e-05 -3.95383e-06 -4.77968e-06 -5.74791e-06 -7.09123e-06 -4.77968e-06 -5.94818e-06 -7.09123e-06 -8.99622e-06 -5.74791e-06 -7.09123e-06 -8.33933e-06 -1.03586e-05 -7.09123e-06 -8.99622e-06 -1.03586e-05 -1.31918e-05 -5.94818e-06 -7.68675e-06 -8.99622e-06 -1.18245e-05 -7.68675e-06 -1.04095e-05 -1.18245e-05 -1.60821e-05 -8.99622e-06 -1.18245e-05 -1.31918e-05 -1.73159e-05 -1.18245e-05 -1.60821e-05 -1.73159e-05 -2.3356e-05 -3.72365e-06 -4.58199e-06 -5.11985e-06 -6.3731e-06 -4.58199e-06 -5.59671e-06 -6.3731e-06 -7.85968e-06 -5.11985e-06 -6.3731e-06 -6.91752e-06 -8.70542e-06 -6.3731e-06 -7.85968e-06 -8.70542e-06 -1.08357e-05 -5.59671e-06 -6.81529e-06 -7.85968e-06 -9.64638e-06 -6.81529e-06 -8.33933e-06 -9.64638e-06 -1.18699e-05 -7.85968e-06 -9.64638e-06 -1.08357e-05 -1.33978e-05 -9.64638e-06 -1.18699e-05 -1.33978e-05 -1.65663e-05 -6.91752e-06 -8.70542e-06 -9.17226e-06 -1.16676e-05 -8.70542e-06 -1.08357e-05 -1.16676e-05 -1.46601e-05 -9.17226e-06 -1.16676e-05 -1.19255e-05 -1.53324e-05 -1.16676e-05 -1.46601e-05 -1.53324e-05 -1.94517e-05 -1.08357e-05 -1.33978e-05 -1.46601e-05 -1.82661e-05 -1.33978e-05 -1.65663e-05 -1.82661e-05 -2.26975e-05 -1.46601e-05 -1.82661e-05 -1.94517e-05 -2.44309e-05 -1.82661e-05 -2.26975e-05 -2.44309e-05 -3.05157e-05 -8.33933e-06 -1.03586e-05 -1.18699e-05 -1.4781e-05 -1.03586e-05 -1.31918e-05 -1.4781e-05 -1.87893e-05 -1.18699e-05 -1.4781e-05 -1.65663e-05 -2.06519e-05 -1.4781e-05 -1.87893e-05 -2.06519e-05 -2.61486e-05 -1.31918e-05 -1.73159e-05 -1.87893e-05 -2.44858e-05 -1.73159e-05 -2.3356e-05 -2.44858e-05 -3.26035e-05 -1.87893e-05 -2.44858e-05 -2.61486e-05 -3.3743e-05 -2.44858e-05 -3.26035e-05 -3.3743e-05 -4.42421e-05 -1.65663e-05 -2.06519e-05 -2.26975e-05 -2.83169e-05 -2.06519e-05 -2.61486e-05 -2.83169e-05 -3.56794e-05 -2.26975e-05 -2.83169e-05 -3.05157e-05 -3.81009e-05 -2.83169e-05 -3.56794e-05 -3.81009e-05 -4.77548e-05 -2.61486e-05 -3.3743e-05 -3.56794e-05 -4.55207e-05 -3.3743e-05 -4.42421e-05 -4.55207e-05 -5.86522e-05 -3.56794e-05 -4.55207e-05 -4.77548e-05 -6.01773e-05 -4.55207e-05 -5.86522e-05 -6.01773e-05 -7.60672e-05 -1.47284e-07 -8.60261e-07 -9.05561e-08 -9.51885e-07 -8.60261e-07 -1.63276e-06 -9.51885e-07 -1.89873e-06 -9.05561e-08 -9.51885e-07 -5.53453e-08 -1.07437e-06 -9.51885e-07 -1.89873e-06 -1.07437e-06 -2.20512e-06 -1.63276e-06 -2.53998e-06 -1.89873e-06 -3.02725e-06 -2.53998e-06 -3.66156e-06 -3.02725e-06 -4.44006e-06 -1.89873e-06 -3.02725e-06 -2.20512e-06 -3.56863e-06 -3.02725e-06 -4.44006e-06 -3.56863e-06 -5.29595e-06 -5.53453e-08 -1.07437e-06 -3.37122e-08 -1.21245e-06 -1.07437e-06 -2.20512e-06 -1.21245e-06 -2.52947e-06 -3.37122e-08 -1.21245e-06 -2.05669e-08 -1.35171e-06 -1.21245e-06 -2.52947e-06 -1.35171e-06 -2.84699e-06 -2.20512e-06 -3.56863e-06 -2.52947e-06 -4.13308e-06 -3.56863e-06 -5.29595e-06 -4.13308e-06 -6.18654e-06 -2.52947e-06 -4.13308e-06 -2.84699e-06 -4.68251e-06 -4.13308e-06 -6.18654e-06 -4.68251e-06 -7.05494e-06 -3.66156e-06 -5.07983e-06 -4.44006e-06 -6.24643e-06 -5.07983e-06 -6.87715e-06 -6.24643e-06 -8.56066e-06 -4.44006e-06 -6.24643e-06 -5.29595e-06 -7.53043e-06 -6.24643e-06 -8.56066e-06 -7.53043e-06 -1.04274e-05 -6.87715e-06 -9.13339e-06 -8.56066e-06 -1.14994e-05 -9.13339e-06 -1.19255e-05 -1