# vtk DataFile Version 3.0
#This file was generated by the deal.II library on 2022/11/17 at 0:15:40
ASCII
DATASET UNSTRUCTURED_GRID

POINTS 4288 double
0 0.5 0
0.03125 0.5 0
0 0.53125 0
0.03125 0.53125 0
0.03125 0.5 0
0.0625 0.5 0
0.03125 0.53125 0
0.0625 0.53125 0
0 0.53125 0
0.03125 0.53125 0
0 0.5625 0
0.03125 0.5625 0
0.03125 0.53125 0
0.0625 0.53125 0
0.03125 0.5625 0
0.0625 0.5625 0
0.0625 0.5 0
0.09375 0.5 0
0.0625 0.53125 0
0.09375 0.53125 0
0.09375 0.5 0
0.125 0.5 0
0.09375 0.53125 0
0.125 0.53125 0
0.0625 0.53125 0
0.09375 0.53125 0
0.0625 0.5625 0
0.09375 0.5625 0
0.09375 0.53125 0
0.125 0.53125 0
0.09375 0.5625 0
0.125 0.5625 0
0 0.5625 0
0.03125 0.5625 0
0 0.59375 0
0.03125 0.59375 0
0.03125 0.5625 0
0.0625 0.5625 0
0.03125 0.59375 0
0.0625 0.59375 0
0 0.59375 0
0.03125 0.59375 0
0 0.625 0
0.03125 0.625 0
0.03125 0.59375 0
0.0625 0.59375 0
0.03125 0.625 0
0.0625 0.625 0
0.0625 0.5625 0
0.09375 0.5625 0
0.0625 0.59375 0
0.09375 0.59375 0
0.09375 0.5625 0
0.125 0.5625 0
0.09375 0.59375 0
0.125 0.59375 0
0.0625 0.59375 0
0.09375 0.59375 0
0.0625 0.625 0
0.09375 0.625 0
0.09375 0.59375 0
0.125 0.59375 0
0.09375 0.625 0
0.125 0.625 0
0.125 0.5 0
0.15625 0.5 0
0.125 0.53125 0
0.15625 0.53125 0
0.15625 0.5 0
0.1875 0.5 0
0.15625 0.53125 0
0.1875 0.53125 0
0.125 0.53125 0
0.15625 0.53125 0
0.125 0.5625 0
0.15625 0.5625 0
0.15625 0.53125 0
0.1875 0.53125 0
0.15625 0.5625 0
0.1875 0.5625 0
0.1875 0.5 0
0.21875 0.5 0
0.1875 0.53125 0
0.21875 0.53125 0
0.21875 0.5 0
0.25 0.5 0
0.21875 0.53125 0
0.25 0.53125 0
0.1875 0.53125 0
0.21875 0.53125 0
0.1875 0.5625 0
0.21875 0.5625 0
0.21875 0.53125 0
0.25 0.53125 0
0.21875 0.5625 0
0.25 0.5625 0
0.125 0.5625 0
0.15625 0.5625 0
0.125 0.59375 0
0.15625 0.59375 0
0.15625 0.5625 0
0.1875 0.5625 0
0.15625 0.59375 0
0.1875 0.59375 0
0.125 0.59375 0
0.15625 0.59375 0
0.125 0.625 0
0.15625 0.625 0
0.15625 0.59375 0
0.1875 0.59375 0
0.15625 0.625 0
0.1875 0.625 0
0.1875 0.5625 0
0.21875 0.5625 0
0.1875 0.59375 0
0.21875 0.59375 0
0.21875 0.5625 0
0.25 0.5625 0
0.21875 0.59375 0
0.25 0.59375 0
0.1875 0.59375 0
0.21875 0.59375 0
0.1875 0.625 0
0.21875 0.625 0
0.21875 0.59375 0
0.25 0.59375 0
0.21875 0.625 0
0.25 0.625 0
0 0.625 0
0.03125 0.625 0
0 0.65625 0
0.03125 0.65625 0
0.03125 0.625 0
0.0625 0.625 0
0.03125 0.65625 0
0.0625 0.65625 0
0 0.65625 0
0.03125 0.65625 0
0 0.6875 0
0.03125 0.6875 0
0.03125 0.65625 0
0.0625 0.65625 0
0.03125 0.6875 0
0.0625 0.6875 0
0.0625 0.625 0
0.09375 0.625 0
0.0625 0.65625 0
0.09375 0.65625 0
0.09375 0.625 0
0.125 0.625 0
0.09375 0.65625 0
0.125 0.65625 0
0.0625 0.65625 0
0.09375 0.65625 0
0.0625 0.6875 0
0.09375 0.6875 0
0.09375 0.65625 0
0.125 0.65625 0
0.09375 0.6875 0
0.125 0.6875 0
0 0.6875 0
0.03125 0.6875 0
0 0.71875 0
0.03125 0.71875 0
0.03125 0.6875 0
0.0625 0.6875 0
0.03125 0.71875 0
0.0625 0.71875 0
0 0.71875 0
0.03125 0.71875 0
0 0.75 0
0.03125 0.75 0
0.03125 0.71875 0
0.0625 0.71875 0
0.03125 0.75 0
0.0625 0.75 0
0.0625 0.6875 0
0.09375 0.6875 0
0.0625 0.71875 0
0.09375 0.71875 0
0.09375 0.6875 0
0.125 0.6875 0
0.09375 0.71875 0
0.125 0.71875 0
0.0625 0.71875 0
0.09375 0.71875 0
0.0625 0.75 0
0.09375 0.75 0
0.09375 0.71875 0
0.125 0.71875 0
0.09375 0.75 0
0.125 0.75 0
0.125 0.625 0
0.15625 0.625 0
0.125 0.65625 0
0.15625 0.65625 0
0.15625 0.625 0
0.1875 0.625 0
0.15625 0.65625 0
0.1875 0.65625 0
0.125 0.65625 0
0.15625 0.65625 0
0.125 0.6875 0
0.15625 0.6875 0
0.15625 0.65625 0
0.1875 0.65625 0
0.15625 0.6875 0
0.1875 0.6875 0
0.1875 0.625 0
0.21875 0.625 0
0.1875 0.65625 0
0.21875 0.65625 0
0.21875 0.625 0
0.25 0.625 0
0.21875 0.65625 0
0.25 0.65625 0
0.1875 0.65625 0
0.21875 0.65625 0
0.1875 0.6875 0
0.21875 0.6875 0
0.21875 0.65625 0
0.25 0.65625 0
0.21875 0.6875 0
0.25 0.6875 0
0.125 0.6875 0
0.15625 0.6875 0
0.125 0.71875 0
0.15625 0.71875 0
0.15625 0.6875 0
0.1875 0.6875 0
0.15625 0.71875 0
0.1875 0.71875 0
0.125 0.71875 0
0.15625 0.71875 0
0.125 0.75 0
0.15625 0.75 0
0.15625 0.71875 0
0.1875 0.71875 0
0.15625 0.75 0
0.1875 0.75 0
0.1875 0.6875 0
0.21875 0.6875 0
0.1875 0.71875 0
0.21875 0.71875 0
0.21875 0.6875 0
0.25 0.6875 0
0.21875 0.71875 0
0.25 0.71875 0
0.1875 0.71875 0
0.21875 0.71875 0
0.1875 0.75 0
0.21875 0.75 0
0.21875 0.71875 0
0.25 0.71875 0
0.21875 0.75 0
0.25 0.75 0
0.25 0.5 0
0.28125 0.5 0
0.25 0.53125 0
0.28125 0.53125 0
0.28125 0.5 0
0.3125 0.5 0
0.28125 0.53125 0
0.3125 0.53125 0
0.25 0.53125 0
0.28125 0.53125 0
0.25 0.5625 0
0.28125 0.5625 0
0.28125 0.53125 0
0.3125 0.53125 0
0.28125 0.5625 0
0.3125 0.5625 0
0.3125 0.5 0
0.34375 0.5 0
0.3125 0.53125 0
0.34375 0.53125 0
0.34375 0.5 0
0.375 0.5 0
0.34375 0.53125 0
0.375 0.53125 0
0.3125 0.53125 0
0.34375 0.53125 0
0.3125 0.5625 0
0.34375 0.5625 0
0.34375 0.53125 0
0.375 0.53125 0
0.34375 0.5625 0
0.375 0.5625 0
0.25 0.5625 0
0.28125 0.5625 0
0.25 0.59375 0
0.28125 0.59375 0
0.28125 0.5625 0
0.3125 0.5625 0
0.28125 0.59375 0
0.3125 0.59375 0
0.25 0.59375 0
0.28125 0.59375 0
0.25 0.625 0
0.28125 0.625 0
0.28125 0.59375 0
0.3125 0.59375 0
0.28125 0.625 0
0.3125 0.625 0
0.3125 0.5625 0
0.34375 0.5625 0
0.3125 0.59375 0
0.34375 0.59375 0
0.34375 0.5625 0
0.375 0.5625 0
0.34375 0.59375 0
0.375 0.59375 0
0.3125 0.59375 0
0.34375 0.59375 0
0.3125 0.625 0
0.34375 0.625 0
0.34375 0.59375 0
0.375 0.59375 0
0.34375 0.625 0
0.375 0.625 0
0.375 0.5 0
0.40625 0.5 0
0.375 0.53125 0
0.40625 0.53125 0
0.40625 0.5 0
0.4375 0.5 0
0.40625 0.53125 0
0.4375 0.53125 0
0.375 0.53125 0
0.40625 0.53125 0
0.375 0.5625 0
0.40625 0.5625 0
0.40625 0.53125 0
0.4375 0.53125 0
0.40625 0.5625 0
0.4375 0.5625 0
0.375 0.5625 0
0.40625 0.5625 0
0.375 0.59375 0
0.40625 0.59375 0
0.40625 0.5625 0
0.4375 0.5625 0
0.40625 0.59375 0
0.4375 0.59375 0
0.375 0.59375 0
0.40625 0.59375 0
0.375 0.625 0
0.40625 0.625 0
0.40625 0.59375 0
0.4375 0.59375 0
0.40625 0.625 0
0.4375 0.625 0
0.4375 0.5625 0
0.46875 0.5625 0
0.4375 0.59375 0
0.46875 0.59375 0
0.46875 0.5625 0
0.5 0.5625 0
0.46875 0.59375 0
0.5 0.59375 0
0.4375 0.59375 0
0.46875 0.59375 0
0.4375 0.625 0
0.46875 0.625 0
0.46875 0.59375 0
0.5 0.59375 0
0.46875 0.625 0
0.5 0.625 0
0.25 0.625 0
0.28125 0.625 0
0.25 0.65625 0
0.28125 0.65625 0
0.28125 0.625 0
0.3125 0.625 0
0.28125 0.65625 0
0.3125 0.65625 0
0.25 0.65625 0
0.28125 0.65625 0
0.25 0.6875 0
0.28125 0.6875 0
0.28125 0.65625 0
0.3125 0.65625 0
0.28125 0.6875 0
0.3125 0.6875 0
0.3125 0.625 0
0.34375 0.625 0
0.3125 0.65625 0
0.34375 0.65625 0
0.34375 0.625 0
0.375 0.625 0
0.34375 0.65625 0
0.375 0.65625 0
0.3125 0.65625 0
0.34375 0.65625 0
0.3125 0.6875 0
0.34375 0.6875 0
0.34375 0.65625 0
0.375 0.65625 0
0.34375 0.6875 0
0.375 0.6875 0
0.25 0.6875 0
0.28125 0.6875 0
0.25 0.71875 0
0.28125 0.71875 0
0.28125 0.6875 0
0.3125 0.6875 0
0.28125 0.71875 0
0.3125 0.71875 0
0.25 0.71875 0
0.28125 0.71875 0
0.25 0.75 0
0.28125 0.75 0
0.28125 0.71875 0
0.3125 0.71875 0
0.28125 0.75 0
0.3125 0.75 0
0.3125 0.6875 0
0.34375 0.6875 0
0.3125 0.71875 0
0.34375 0.71875 0
0.34375 0.6875 0
0.375 0.6875 0
0.34375 0.71875 0
0.375 0.71875 0
0.3125 0.71875 0
0.34375 0.71875 0
0.3125 0.75 0
0.34375 0.75 0
0.34375 0.71875 0
0.375 0.71875 0
0.34375 0.75 0
0.375 0.75 0
0.375 0.625 0
0.40625 0.625 0
0.375 0.65625 0
0.40625 0.65625 0
0.40625 0.625 0
0.4375 0.625 0
0.40625 0.65625 0
0.4375 0.65625 0
0.375 0.65625 0
0.40625 0.65625 0
0.375 0.6875 0
0.40625 0.6875 0
0.40625 0.65625 0
0.4375 0.65625 0
0.40625 0.6875 0
0.4375 0.6875 0
0.4375 0.625 0
0.46875 0.625 0
0.4375 0.65625 0
0.46875 0.65625 0
0.46875 0.625 0
0.5 0.625 0
0.46875 0.65625 0
0.5 0.65625 0
0.4375 0.65625 0
0.46875 0.65625 0
0.4375 0.6875 0
0.46875 0.6875 0
0.46875 0.65625 0
0.5 0.65625 0
0.46875 0.6875 0
0.5 0.6875 0
0.375 0.6875 0
0.40625 0.6875 0
0.375 0.71875 0
0.40625 0.71875 0
0.40625 0.6875 0
0.4375 0.6875 0
0.40625 0.71875 0
0.4375 0.71875 0
0.375 0.71875 0
0.40625 0.71875 0
0.375 0.75 0
0.40625 0.75 0
0.40625 0.71875 0
0.4375 0.71875 0
0.40625 0.75 0
0.4375 0.75 0
0.4375 0.6875 0
0.46875 0.6875 0
0.4375 0.71875 0
0.46875 0.71875 0
0.46875 0.6875 0
0.5 0.6875 0
0.46875 0.71875 0
0.5 0.71875 0
0.4375 0.71875 0
0.46875 0.71875 0
0.4375 0.75 0
0.46875 0.75 0
0.46875 0.71875 0
0.5 0.71875 0
0.46875 0.75 0
0.5 0.75 0
0 0.75 0
0.03125 0.75 0
0 0.78125 0
0.03125 0.78125 0
0.03125 0.75 0
0.0625 0.75 0
0.03125 0.78125 0
0.0625 0.78125 0
0 0.78125 0
0.03125 0.78125 0
0 0.8125 0
0.03125 0.8125 0
0.03125 0.78125 0
0.0625 0.78125 0
0.03125 0.8125 0
0.0625 0.8125 0
0.0625 0.75 0
0.09375 0.75 0
0.0625 0.78125 0
0.09375 0.78125 0
0.09375 0.75 0
0.125 0.75 0
0.09375 0.78125 0
0.125 0.78125 0
0.0625 0.78125 0
0.09375 0.78125 0
0.0625 0.8125 0
0.09375 0.8125 0
0.09375 0.78125 0
0.125 0.78125 0
0.09375 0.8125 0
0.125 0.8125 0
0 0.8125 0
0.03125 0.8125 0
0 0.84375 0
0.03125 0.84375 0
0.03125 0.8125 0
0.0625 0.8125 0
0.03125 0.84375 0
0.0625 0.84375 0
0 0.84375 0
0.03125 0.84375 0
0 0.875 0
0.03125 0.875 0
0.03125 0.84375 0
0.0625 0.84375 0
0.03125 0.875 0
0.0625 0.875 0
0.0625 0.8125 0
0.09375 0.8125 0
0.0625 0.84375 0
0.09375 0.84375 0
0.09375 0.8125 0
0.125 0.8125 0
0.09375 0.84375 0
0.125 0.84375 0
0.0625 0.84375 0
0.09375 0.84375 0
0.0625 0.875 0
0.09375 0.875 0
0.09375 0.84375 0
0.125 0.84375 0
0.09375 0.875 0
0.125 0.875 0
0.125 0.75 0
0.15625 0.75 0
0.125 0.78125 0
0.15625 0.78125 0
0.15625 0.75 0
0.1875 0.75 0
0.15625 0.78125 0
0.1875 0.78125 0
0.125 0.78125 0
0.15625 0.78125 0
0.125 0.8125 0
0.15625 0.8125 0
0.15625 0.78125 0
0.1875 0.78125 0
0.15625 0.8125 0
0.1875 0.8125 0
0.1875 0.75 0
0.21875 0.75 0
0.1875 0.78125 0
0.21875 0.78125 0
0.21875 0.75 0
0.25 0.75 0
0.21875 0.78125 0
0.25 0.78125 0
0.1875 0.78125 0
0.21875 0.78125 0
0.1875 0.8125 0
0.21875 0.8125 0
0.21875 0.78125 0
0.25 0.78125 0
0.21875 0.8125 0
0.25 0.8125 0
0.125 0.8125 0
0.15625 0.8125 0
0.125 0.84375 0
0.15625 0.84375 0
0.15625 0.8125 0
0.1875 0.8125 0
0.15625 0.84375 0
0.1875 0.84375 0
0.125 0.84375 0
0.15625 0.84375 0
0.125 0.875 0
0.15625 0.875 0
0.15625 0.84375 0
0.1875 0.84375 0
0.15625 0.875 0
0.1875 0.875 0
0.1875 0.8125 0
0.21875 0.8125 0
0.1875 0.84375 0
0.21875 0.84375 0
[...]
POINT_DATA 4288
SCALARS x_dis double 1
LOOKUP_TABLE default
0.00073857 0.000705037 0.000708863 0.000675487 0.000705037 0.000670033 0.000675487 0.000640948 0.000708863 0.000675487 0.000672279 0.000638653 0.000675487 0.000640948 0.000638653 0.000604205 0.000670033 0.000634909 0.000640948 0.000606522 0.000634909 0.000600695 0.000606522 0.00057317 0.000640948 0.000606522 0.000604205 0.00057006 0.000606522 0.00057317 0.00057006 0.000537052 0.000672279 0.000638653 0.000629643 0.0005954 0.000638653 0.000604205 0.0005954 0.000560705 0.000629643 0.0005954 0.000582045 0.000546873 0.0005954 0.000560705 0.000546873 0.000511651 0.000604205 0.00057006 0.000560705 0.000526474 0.00057006 0.000537052 0.000526474 0.000493369 0.000560705 0.000526474 0.000511651 0.000477045 0.000526474 0.000493369 0.000477045 0.000443515 0.000600695 0.000568187 0.00057317 0.000541631 0.000568187 0.000538019 0.000541631 0.000512475 0.00057317 0.000541631 0.000537052 0.0005058 0.000541631 0.000512475 0.0005058 0.000476751 0.000538019 0.000510707 0.000512475 0.000486156 0.000510707 0.000486697 0.000486156 0.000463036 0.000512475 0.000486156 0.000476751 0.000450211 0.000486156 0.000463036 0.000450211 0.000426355 0.000537052 0.0005058 0.000493369 0.000461847 0.0005058 0.000476751 0.000461847 0.000432196 0.000493369 0.000461847 0.000443515 0.000411341 0.000461847 0.000432196 0.000411341 0.000380643 0.000476751 0.000450211 0.000432196 0.00040454 0.000450211 0.000426355 0.00040454 0.000378833 0.000432196 0.00040454 0.000380643 0.000351374 0.00040454 0.000378833 0.000351374 0.000323304 0.000582045 0.000546873 0.00053078 0.000494438 0.000546873 0.000511651 0.000494438 0.000458476 0.00053078 0.000494438 0.000477285 0.000439606 0.000494438 0.000458476 0.000439606 0.000402764 0.000511651 0.000477045 0.000458476 0.000423293 0.000477045 0.000443515 0.000423293 0.000389137 0.000458476 0.000423293 0.000402764 0.000366888 0.000423293 0.000389137 0.000366888 0.000332018 0.000477285 0.000439606 0.000423073 0.000383966 0.000439606 0.000402764 0.000383966 0.000346168 0.000423073 0.000383966 0.000369668 0.000329112 0.000383966 0.000346168 0.000329112 0.000290342 0.000402764 0.000366888 0.000346168 0.000309556 0.000366888 0.000332018 0.000309556 0.000273977 0.000346168 0.000309556 0.000290342 0.000253008 0.000309556 0.000273977 0.000253008 0.000216785 0.000443515 0.000411341 0.000389137 0.000356111 0.000411341 0.000380643 0.000356111 0.000324182 0.000389137 0.000356111 0.000332018 0.000298098 0.000356111 0.000324182 0.000298098 0.000264967 0.000380643 0.000351374 0.000324182 0.000293172 0.000351374 0.000323304 0.000293172 0.000262741 0.000324182 0.000293172 0.000264967 0.00023236 0.000293172 0.000262741 0.00023236 0.000199903 0.000332018 0.000298098 0.000273977 0.000239233 0.000298098 0.000264967 0.000239233 0.000205066 0.000273977 0.000239233 0.000216785 0.000181354 0.000239233 0.000205066 0.000181354 0.000146387 0.000264967 0.00023236 0.000205066 0.000171167 0.00023236 0.000199903 0.000171167 0.000137173 0.000205066 0.000171167 0.000146387 0.000111552 0.000171167 0.000137173 0.000111552 7.65273e-05 0.000486697 0.000466411 0.000463036 0.000443424 0.000466411 0.000450315 0.000443424 0.000427595 0.000463036 0.000443424 0.000426355 0.000405214 0.000443424 0.000427595 0.000405214 0.000386623 0.000450315 0.000439027 0.000427595 0.000415806 0.000439027 0.000433521 0.000415806 0.000408271 0.000427595 0.000415806 0.000386623 0.000370092 0.000415806 0.000408271 0.000370092 0.000354469 0.000426355 0.000405214 0.000378833 0.000354815 0.000405214 0.000386623 0.000354815 0.000331924 0.000378833 0.000354815 0.000323304 0.000295979 0.000354815 0.000331924 0.000295979 0.00026865 0.000386623 0.000370092 0.000331924 0.000309134 0.000370092 0.000354469 0.000309134 0.000284669 0.000331924 0.000309134 0.00026865 0.000240189 0.000309134 0.000284669 0.000240189 0.000209053 0.000433521 0.000435613 0.000408271 0.000404911 0.000435613 0.000449467 0.000404911 0.000404116 0.000408271 0.000404911 0.000354469 0.000337098 0.000404911 0.000404116 0.000337098 0.000312114 0.000354469 0.000337098 0.000284669 0.000255701 0.000337098 0.000312114 0.000255701 0.000218652 0.000284669 0.000255701 0.000209053 0.000173518 0.000255701 0.000218652 0.000173518 0.000132815 0.000312114 0.000270751 0.000218652 0.000173203 0.000270751 0.000220738 0.000173203 0.000129255 0.000218652 0.000173203 0.000132815 8.93881e-05 0.000173203 0.000129255 8.93881e-05 5.00285e-05 0.000323304 0.000295979 0.000262741 0.000232368 0.000295979 0.00026865 0.000232368 0.000201333 0.000262741 0.000232368 0.000199903 0.000167112 0.000232368 0.000201333 0.000167112 0.000133423 0.00026865 0.000240189 0.000201333 0.000168729 0.000240189 0.000209053 0.000168729 0.00013361 0.000201333 0.000168729 0.000133423 9.82688e-05 0.000168729 0.00013361 9.82688e-05 6.12749e-05 0.000199903 0.000167112 0.000137173 0.000102694 0.000167112 0.000133423 0.000102694 6.73619e-05 0.000137173 0.000102694 7.65273e-05 4.10279e-05 0.000102694 6.73619e-05 4.10279e-05 4.86159e-06 0.000133423 9.82688e-05 6.73619e-05 3.09238e-05 9.82688e-05 6.12749e-05 3.09238e-05 -6.59575e-06 6.73619e-05 3.09238e-05 4.86159e-06 -3.199e-05 3.09238e-05 -6.59575e-06 -3.199e-05 -6.92617e-05 0.000209053 0.000173518 0.00013361 9.54094e-05 0.000173518 0.000132815 9.54094e-05 5.47569e-05 0.00013361 9.54094e-05 6.12749e-05 2.25947e-05 9.54094e-05 5.47569e-05 2.25947e-05 -1.6664e-05 0.000132815 8.93881e-05 5.47569e-05 1.43156e-05 8.93881e-05 5.00285e-05 1.43156e-05 -2.12615e-05 5.47569e-05 1.43156e-05 -1.6664e-05 -5.41876e-05 1.43156e-05 -2.12615e-05 -5.41876e-05 -8.67724e-05 6.12749e-05 2.25947e-05 -6.59575e-06 -4.46833e-05 2.25947e-05 -1.6664e-05 -4.46833e-05 -8.21492e-05 -6.59575e-06 -4.46833e-05 -6.92617e-05 -0.000106291 -4.46833e-05 -8.21492e-05 -0.000106291 -0.000141956 -1.6664e-05 -5.41876e-05 -8.21492e-05 -0.00011711 -5.41876e-05 -8.67724e-05 -0.00011711 -0.000147278 -8.21492e-05 -0.00011711 -0.000141956 -0.000174734 -0.00011711 -0.000147278 -0.000174734 -0.000202932 0.000369668 0.000329112 0.000318555 0.000276589 0.000329112 0.000290342 0.000276589 0.000236879 0.000318555 0.000276589 0.000271133 0.000227848 0.000276589 0.000236879 0.000227848 0.000187267 0.000290342 0.000253008 0.000236879 0.000198875 0.000253008 0.000216785 0.000198875 0.000162107 0.000236879 0.000198875 0.000187267 0.000148672 0.000198875 0.000162107 0.000148672 0.000111466 0.000271133 0.000227848 0.000228677 0.000184208 0.000227848 0.000187267 0.000184208 0.000142854 0.000228677 0.000184208 0.000192315 0.000146833 0.000184208 0.000142854 0.000146833 0.000104824 0.000187267 0.000148672 0.000142854 0.000103757 0.000148672 0.000111466 0.000103757 6.62187e-05 0.000142854 0.000103757 0.000104824 6.53198e-05 0.000103757 6.62187e-05 6.53198e-05 2.75402e-05 0.000216785 0.000181354 0.000162107 0.000126152 0.000181354 0.000146387 0.000126152 9.06296e-05 0.000162107 0.000126152 0.000111466 7.51451e-05 0.000126152 9.06296e-05 7.51451e-05 3.92856e-05 0.000146387 0.000111552 9.06296e-05 5.52011e-05 0.000111552 7.65273e-05 5.52011e-05 1.95868e-05 9.06296e-05 5.52011e-05 3.92856e-05 3.54585e-06 5.52011e-05 1.95868e-05 3.54585e-06 -3.23171e-05 0.000111466 7.51451e-05 6.62187e-05 2.96661e-05 7.51451e-05 3.92856e-05 2.96661e-05 -6.35984e-06 6.62187e-05 2.96661e-05 2.75402e-05 -9.14277e-06 2.96661e-05 -6.35984e-06 -9.14277e-06 -4.52172e-05 3.92856e-05 3.54585e-06 -6.35984e-06 -4.2203e-05 3.54585e-06 -3.23171e-05 -4.2203e-05 -7.80807e-05 -6.35984e-06 -4.2203e-05 -4.52172e-05 -8.10318e-05 -4.2203e-05 -7.80807e-05 -8.10318e-05 -0.000116788 0.000192315 0.000146833 0.000163004 0.000116705 0.000146833 0.000104824 0.000116705 7.41735e-05 0.000163004 0.000116705 0.000141506 9.46093e-05 0.000116705 7.41735e-05 9.46093e-05 5.16986e-05 0.000104824 6.53198e-05 7.41735e-05 3.43569e-05 6.53198e-05 2.75402e-05 3.43569e-05 -3.58842e-06 7.41735e-05 3.43569e-05 5.16986e-05 1.16616e-05 3.43569e-05 -3.58842e-06 1.16616e-05 -2.63894e-05 0.000141506 9.46093e-05 0.000128381 8.11193e-05 9.46093e-05 5.16986e-05 8.11193e-05 3.79785e-05 0.000128381 8.11193e-05 0.000123968 7.65836e-05 8.11193e-05 3.79785e-05 7.65836e-05 3.33657e-05 5.16986e-05 1.16616e-05 3.79785e-05 -2.18927e-06 1.16616e-05 -2.63894e-05 -2.18927e-06 -4.02985e-05 3.79785e-05 -2.18927e-06 3.33657e-05 -6.84543e-06 -2.18927e-06 -4.02985e-05 -6.84543e-06 -4.49731e-05 2.75402e-05 -9.14277e-06 -3.58842e-06 -4.0333e-05 -9.14277e-06 -4.52172e-05 -4.0333e-05 -7.63884e-05 -3.58842e-06 -4.0333e-05 -2.63894e-05 -6.31559e-05 -4.0333e-05 -7.63884e-05 -6.31559e-05 -9.91666e-05 -4.52172e-05 -8.10318e-05 -7.63884e-05 -0.000112109 -8.10318e-05 -0.000116788 -0.000112109 -0.000147689 -7.63884e-05 -0.000112109 -9.91666e-05 -0.000134782 -0.000112109 -0.000147689 -0.000134782 -0.000170192 -2.63894e-05 -6.31559e-05 -4.02985e-05 -7.7069e-05 -6.31559e-05 -9.91666e-05 -7.7069e-05 -0.00011304 -4.02985e-05 -7.7069e-05 -4.49731e-05 -8.17434e-05 -7.7069e-05 -0.00011304 -8.17434e-05 -0.0001177 -9.91666e-05 -0.000134782 -0.00011304 -0.000148577 -0.000134782 -0.000170192 -0.000148577 -0.000183869 -0.00011304 -0.000148577 -0.0001177 -0.000153208 -0.000148577 -0.000183869 -0.000153208 -0.000188457 7.65273e-05 4.10279e-05 1.95868e-05 -1.64043e-05 4.10279e-05 4.86159e-06 -1.64043e-05 -5.28294e-05 1.95868e-05 -1.64043e-05 -3.23171e-05 -6.84235e-05 -1.64043e-05 -5.28294e-05 -6.84235e-05 -0.000104738 4.86159e-06 -3.199e-05 -5.28294e-05 -8.95523e-05 -3.199e-05 -6.92617e-05 -8.95523e-05 -0.000126178 -5.28294e-05 -8.95523e-05 -0.000104738 -0.000141031 -8.95523e-05 -0.000126178 -0.000141031 -0.000176847 -3.23171e-05 -6.84235e-05 -7.80807e-05 -0.000114065 -6.84235e-05 -0.000104738 -0.000114065 -0.000150063 -7.80807e-05 -0.000114065 -0.000116788 -0.000152529 -0.000114065 -0.000150063 -0.000152529 -0.000188127 -0.000104738 -0.000141031 -0.000150063 -0.000185794 -0.000141031 -0.000176847 -0.000185794 -0.00022078 -0.000150063 -0.000185794 -0.000188127 -0.000223278 -0.000185794 -0.00022078 -0.000223278 -0.000257501 -6.92617e-05 -0.000106291 -0.000126178 -0.000162004 -0.000106291 -0.000141956 -0.000162004 -0.000196015 -0.000126178 -0.000162004 -0.000176847 -0.000211492 -0.000162004 -0.000196015 -0.000211492 -0.000244054 -0.000141956 -0.000174734 -0.000196015 -0.000226964 -0.000174734 -0.000202932 -0.000226964 -0.000253545 -0.000196015 -0.000226964 -0.000244054 -0.000273489 -0.000226964 -0.000253545 -0.000273489 -0.000298747 -0.000176847 -0.000211492 -0.00022078 -0.000254353 -0.000211492 -0.000244054 -0.000254353 -0.000285692 -0.00022078 -0.000254353 -0.000257501 -0.000290161 -0.000254353 -0.000285692 -0.000290161 -0.000320506 -0.000244054 -0.000273489 -0.000285692 -0.000313895 -0.000273489 -0.000298747 -0.000313895 -0.000338084 -0.000285692 -0.000313895 -0.000320506 -0.000347735 -0.000313895 -0.000338084 -0.000347735 -0.000371079 -0.000116788 -0.000152529 -0.000147689 -0.000183154 -0.000152529 -0.000188127 -0.000183154 -0.000218359 -0.000147689 -0.000183154 -0.000170192 -0.000205416 -0.000183154 -0.000218359 -0.000205416 -0.0002403 -0.000188127 -0.000223278 -0.000218359 -0.000252991 -0.000223278 -0.000257501 -0.000252991 -0.000286576 -0.000218359 -0.000252991 -0.0002403 -0.000274527 -0.000252991 -0.000286576 -0.000274527 -0.000307632 -0.000170192 -0.000205416 -0.000183869 -0.00021893 -0.000205416 -0.0002403 -0.00021893 -0.000253605 -0.000183869 -0.00021893 -0.000188457 -0.000223461 -0.00021893 -0.000253605 -0.000223461 -0.000258064 -0.0002403 -0.000274527 -0.000253605 -0.000287576 -0.000274527 -0.000307632 -0.000287576 -0.000320385 -0.000253605 -0.000287576 -0.000258064 -0.000291948 -0.000287576 -0.000320385 -0.000291948 -0.000324657 -0.000257501 -0.000290161 -0.000286576 -0.000318506 -0.000290161 -0.000320506 -0.000318506 -0.000348084 -0.000286576 -0.000318506 -0.000307632 -0.000339032 -0.000318506 -0.000348084 -0.000339032 -0.000368066 -0.000320506 -0.000347735 -0.000348084 -0.000374576 -0.000347735 -0.000371079 -0.000374576 -0.000397281 -0.000348084 -0.000374576 -0.000368066 -0.000394042 -0.000374576 -0.000397281 -0.000394042 -0.000416299 -0.000307632 -0.000339032 -0.000320385 -0.000351463 -0.000339032 -0.000368066 -0.000351463 -0.000380173 -0.000320385 -0.000351463 -0.000324657 -0.000355627 -0.000351463 -0.000380173 -0.000355627 -0.000384229 -0.000368066 -0.000394042 -0.000380173 -0.000405845 -0.000394042 -0.000416299 -0.000405845 -0.000427834 -0.000380173 -0.000405845 -0.000384229 -0.0004098 -0.000405845 -0.000427834 -0.0004098 -0.0004317 0.000552548 0.000520037 0.000352122 0.000358013 0.000520037 0.000487289 0.000358013 0.000354479 0.000352122 0.000358013 0.000202655 0.000217503 0.000358013 0.000354479 0.000217503 0.000228451 0.000220738 0.000196505 0.000129255 0.00010184 0.000196505 0.000202655 0.00010184 9.66424e-05 0.000129255 0.00010184 5.00285e-05 2.30352e-05 0.00010184 9.66424e-05 2.30352e-05 1.20496e-05 0.000202655 0.000217503 9.66424e-05 0.000105314 0.000217503 0.000228451 0.000105314 0.000118275 9.66424e-05 0.000105314 1.20496e-05 1.43308e-05 0.000105314 0.000118275 1.43308e-05 2.41935e-05 0.000487289 0.000457527 0.000354479 0.000346844 0.000457527 0.000431973 0.000346844 0.000337982 0.000354479 0.000346844 0.000228451 0.000235018 0.000346844 0.000337982 0.000235018 0.000238534 0.000431973 0.000411065 0.000337982 0.000329622 0.000411065 0.00039489 0.000329622 0.00032275 0.000337982 0.000329622 0.000238534 0.00024036 0.000329622 0.00032275 0.00024036 0.000241571 0.000228451 0.000235018 0.000118275 0.000130663 0.000235018 0.000238534 0.000130663 0.00014112 0.000118275 0.000130663 2.41935e-05 3.69405e-05 0.000130663 0.00014112 3.69405e-05 4.99197e-05 0.000238534 0.00024036 0.00014112 0.000149712 0.00024036 0.000241571 0.000149712 0.000156936 0.00014112 0.000149712 4.99197e-05 6.20393e-05 0.000149712 0.000156936 6.20393e-05 7.30493e-05 5.00285e-05 2.30352e-05 -2.12615e-05 -4.71309e-05 2.30352e-05 1.20496e-05 -4.71309e-05 -6.07535e-05 -2.12615e-05 -4.71309e-05 -8.67724e-05 -0.000111323 -4.71309e-05 -6.07535e-05 -0.000111323 -0.000126085 1.20496e-05 1.43308e-05 -6.07535e-05 -6.30126e-05 1.43308e-05 2.41935e-05 -6.30126e-05 -5.70291e-05 -6.07535e-05 -6.30126e-05 -0.000126085 -0.000131236 -6.30126e-05 -5.70291e-05 -0.000131236 -0.000128523 -8.67724e-05 -0.000111323 -0.000147278 -0.000170558 -0.000111323 -0.000126085 -0.000170558 -0.00018569 -0.000147278 -0.000170558 -0.000202932 -0.00022505 -0.000170558 -0.00018569 -0.00022505 -0.000240159 -0.000126085 -0.000131236 -0.00018569 -0.000192611 -0.000131236 -0.000128523 -0.000192611 -0.000192319 -0.00018569 -0.000192611 -0.000240159 -0.000248109 -0.000192611 -0.000192319 -0.000248109 -0.000249501 2.41935e-05 3.69405e-05 -5.70291e-05 -4.62903e-05 3.69405e-05 4.99197e-05 -4.62903e-05 -3.34672e-05 -5.70291e-05 -4.62903e-05 -0.000128523 -0.000120329 -4.62903e-05 -3.34672e-05 -0.000120329 -0.000108876 4.99197e-05 6.20393e-05 -3.34672e-05 -2.01929e-05 6.20393e-05 7.30493e-05 -2.01929e-05 -7.26651e-06 -3.34672e-05 -2.01929e-05 -0.000108876 -9.58459e-05 -2.01929e-05 -7.26651e-06 -9.58459e-05 -8.23007e-05 -0.000128523 -0.000120329 -0.000192319 -0.000186434 -0.000120329 -0.000108876 -0.000186434 -0.000176666 -0.000192319 -0.000186434 -0.000249501 -0.000245449 -0.000186434 -0.000176666 -0.000245449 -0.000237235 -0.000108876 -9.58459e-05 -0.000176666 -0.000164519 -9.58459e-05 -8.23007e-05 -0.000164519 -0.000151102 -0.000176666 -0.000164519 -0.000237235 -0.000226128 -0.000164519 -0.000151102 -0.000226128 -0.000213172 0.00039489 0.000383339 0.00032275 0.000317865 0.000383339 0.000376134 0.000317865 0.000315137 0.00032275 0.000317865 0.000241571 0.000242897 0.000317865 0.000315137 0.000242897 0.000244775 0.000376134 0.000372808 0.000315137 0.000314479 0.000372808 0.000372697 0.000314479 0.0003156 0.000315137 0.000314479 0.000244775 0.000247406 0.000314479 0.0003156 0.000247406 0.000250812 0.000241571 0.000242897 0.000156936 0.000163329 0.000242897 0.000244775 0.000163329 0.000169335 0.000156936 0.000163329 7.30493e-05 8.30738e-05 0.000163329 0.000169335 8.30738e-05 9.23726e-05 0.000244775 0.000247406 0.000169335 0.000175273 0.000247406 0.000250812 0.000175273 0.000181343 0.000169335 0.000175273 9.23726e-05 0.00010122 0.000175273 0.000181343 0.00010122 0.000109856 0.000372697 0.000374917 0.0003156 0.000318028 0.000374917 0.000378334 0.000318028 0.000321141 0.0003156 0.000318028 0.000250812 0.000254874 0.000318028 0.000321141 0.000254874 0.000259351 0.000378334 0.000381559 0.000321141 0.000324179 0.000381559 0.000383218 0.000324179 0.000326243 0.000321141 0.000324179 0.000259351 0.000263853 0.000324179 0.000326243 0.000263853 0.000267592 0.000250812 0.000254874 0.000181343 0.00018764 0.000254874 0.000259351 0.00018764 0.000194143 0.000181343 0.00018764 0.000109856 0.000118461 0.00018764 0.000194143 0.000118461 0.000127117 0.000259351 0.000263853 0.000194143 0.000200637 0.000263853 0.000267592 0.000200637 0.000206488 0.000194143 0.000200637 0.000127117 0.000135734 0.000200637 0.000206488 0.000135734 0.00014395 7.30493e-05 8.30738e-05 -7.26651e-06 5.02771e-06 8.30738e-05 9.23726e-05 5.02771e-06 1.66897e-05 -7.26651e-06 5.02771e-06 -8.23007e-05 -6.88105e-05 5.02771e-06 1.66897e-05 -6.88105e-05 -5.56101e-05 9.23726e-05 0.00010122 1.66897e-05 2.78568e-05 0.00010122 0.000109856 2.78568e-05 3.87104e-05 1.66897e-05 2.78568e-05 -5.56101e-05 -4.27246e-05 2.78568e-05 3.87104e-05 -4.27246e-05 -3.00758e-05 -8.23007e-05 -6.88105e-05 -0.000151102 -0.000137135 -6.88105e-05 -5.56101e-05 -0.000137135 -0.000123018 -0.000151102 -0.000137135 -0.000213172 -0.000199132 -0.000137135 -0.000123018 -0.000199132 -0.000184501 -5.56101e-05 -4.27246e-05 -0.000123018 -0.000108917 -4.27246e-05 -3.00758e-05 -0.000108917 -9.48624e-05 -0.000123018 -0.000108917 -0.000184501 -0.00016955 -0.000108917 -9.48624e-05 -0.00016955 -0.000154397 0.000109856 0.000118461 3.87104e-05 4.94278e-05 0.000118461 0.000127117 4.94278e-05 6.01344e-05 3.87104e-05 4.94278e-05 -3.00758e-05 -1.75338e-05 4.94278e-05 6.01344e-05 -1.75338e-05 -4.96025e-06 0.000127117 0.000135734 6.01344e-05 7.08583e-05 0.000135734 0.00014395 7.08583e-05 8.1513e-05 6.01344e-05 7.08583e-05 -4.96025e-06 7.7699e-06 7.08583e-05 8.1513e-05 7.7699e-06 2.07965e-05 -3.00758e-05 -1.75338e-05 -9.48624e-05 -8.07838e-05 -1.75338e-05 -4.96025e-06 -8.07838e-05 -6.65485e-05 -9.48624e-05 -8.07838e-05 -0.000154397 -0.000139031 -8.07838e-05 -6.65485e-05 -0.000139031 -0.000123333 -4.96025e-06 7.7699e-06 -6.65485e-05 -5.19633e-05 7.7699e-06 2.07965e-05 -5.19633e-05 -3.67322e-05 -6.65485e-05 -5.19633e-05 -0.000123333 -0.000107074 -5.19633e-05 -3.67322e-05 -0.000107074 -8.98696e-05 -0.000202932 -0.00022505 -0.000253545 -0.000274633 -0.00022505 -0.000240159 -0.000274633 -0.000289513 -0.000253545 -0.000274633 -0.000298747 -0.000318941 -0.000274633 -0.000289513 -0.000318941 -0.000333499 -0.000240159 -0.000248109 -0.000289513 -0.000298016 -0.000248109 -0.000249501 -0.000298016 -0.00030052 -0.000289513 -0.000298016 -0.000333499 -0.000342253 -0.000298016 -0.00030052 -0.000342253 -0.000345445 -0.000298747 -0.000318941 -0.000338084 -0.000357524 -0.000318941 -0.000333499 -0.000357524 -0.000371733 -0.000338084 -0.000357524 -0.000371079 -0.0003899 -0.000357524 -0.000371733 -0.0003899 -0.000403775 -0.000333499 -0.000342253 -0.000371733 -0.000380546 -0.000342253 -0.000345445 -0.000380546 -0.000384126 -0.000371733 -0.000380546 -0.000403775 -0.00041254 -0.000380546 -0.000384126 -0.00041254 -0.000416308 -0.000249501 -0.000245449 -0.00030052 -0.000297808 -0.000245449 -0.000237235 -0.000297808 -0.000290844 -0.00030052 -0.000297808 -0.000345445 -0.000343646 -0.000297808 -0.000290844 -0.000343646 -0.000337594 -0.000237235 -0.000226128 -0.000290844 -0.000280678 -0.000226128 -0.000213172 -0.000280678 -0.000268248 -0.000290844 -0.000280678 -0.000337594 -0.000328162 -0.000280678 -0.000268248 -0.000328162 -0.000316183 -0.000345445 -0.000343646 -0.000384126 -0.000382905 -0.000343646 -0.000337594 -0.000382905 -0.000377464 -0.000384126 -0.000382905 -0.000416308 -0.000415423 -0.000382905 -0.000377464 -0.000415423 -0.000410355 -0.000337594 -0.000328162 