# vtk DataFile Version 3.0
#This file was generated by the deal.II library on 2022/11/17 at 1:11:53
ASCII
DATASET UNSTRUCTURED_GRID

POINTS 10240 double
0.4375 0.75 0
0.46875 0.75 0
0.4375 0.78125 0
0.46875 0.78125 0
0.46875 0.75 0
0.5 0.75 0
0.46875 0.78125 0
0.5 0.78125 0
0.4375 0.78125 0
0.46875 0.78125 0
0.4375 0.8125 0
0.46875 0.8125 0
0.46875 0.78125 0
0.5 0.78125 0
0.46875 0.8125 0
0.5 0.8125 0
0.4375 0.8125 0
0.46875 0.8125 0
0.4375 0.84375 0
0.46875 0.84375 0
0.46875 0.8125 0
0.5 0.8125 0
0.46875 0.84375 0
0.5 0.84375 0
0.4375 0.84375 0
0.46875 0.84375 0
0.4375 0.875 0
0.46875 0.875 0
0.46875 0.84375 0
0.5 0.84375 0
0.46875 0.875 0
0.5 0.875 0
0.375 0.875 0
0.40625 0.875 0
0.375 0.90625 0
0.40625 0.90625 0
0.40625 0.875 0
0.4375 0.875 0
0.40625 0.90625 0
0.4375 0.90625 0
0.375 0.90625 0
0.40625 0.90625 0
0.375 0.9375 0
0.40625 0.9375 0
0.40625 0.90625 0
0.4375 0.90625 0
0.40625 0.9375 0
0.4375 0.9375 0
0.4375 0.875 0
0.46875 0.875 0
0.4375 0.90625 0
0.46875 0.90625 0
0.46875 0.875 0
0.5 0.875 0
0.46875 0.90625 0
0.5 0.90625 0
0.4375 0.90625 0
0.46875 0.90625 0
0.4375 0.9375 0
0.46875 0.9375 0
0.46875 0.90625 0
0.5 0.90625 0
0.46875 0.9375 0
0.5 0.9375 0
0.625 0.5 0
0.65625 0.5 0
0.625 0.53125 0
0.65625 0.53125 0
0.65625 0.5 0
0.6875 0.5 0
0.65625 0.53125 0
0.6875 0.53125 0
0.625 0.53125 0
0.65625 0.53125 0
0.625 0.5625 0
0.65625 0.5625 0
0.65625 0.53125 0
0.6875 0.53125 0
0.65625 0.5625 0
0.6875 0.5625 0
0.6875 0.5 0
0.71875 0.5 0
0.6875 0.53125 0
0.71875 0.53125 0
0.71875 0.5 0
0.75 0.5 0
0.71875 0.53125 0
0.75 0.53125 0
0.6875 0.53125 0
0.71875 0.53125 0
0.6875 0.5625 0
0.71875 0.5625 0
0.71875 0.53125 0
0.75 0.53125 0
0.71875 0.5625 0
0.75 0.5625 0
0.625 0.5625 0
0.65625 0.5625 0
0.625 0.59375 0
0.65625 0.59375 0
0.65625 0.5625 0
0.6875 0.5625 0
0.65625 0.59375 0
0.6875 0.59375 0
0.625 0.59375 0
0.65625 0.59375 0
0.625 0.625 0
0.65625 0.625 0
0.65625 0.59375 0
0.6875 0.59375 0
0.65625 0.625 0
0.6875 0.625 0
0.6875 0.5625 0
0.71875 0.5625 0
0.6875 0.59375 0
0.71875 0.59375 0
0.71875 0.5625 0
0.75 0.5625 0
0.71875 0.59375 0
0.75 0.59375 0
0.6875 0.59375 0
0.71875 0.59375 0
0.6875 0.625 0
0.71875 0.625 0
0.71875 0.59375 0
0.75 0.59375 0
0.71875 0.625 0
0.75 0.625 0
0.5625 0.625 0
0.59375 0.625 0
0.5625 0.65625 0
0.59375 0.65625 0
0.59375 0.625 0
0.625 0.625 0
0.59375 0.65625 0
0.625 0.65625 0
0.5625 0.65625 0
0.59375 0.65625 0
0.5625 0.6875 0
0.59375 0.6875 0
0.59375 0.65625 0
0.625 0.65625 0
0.59375 0.6875 0
0.625 0.6875 0
0.5 0.6875 0
0.53125 0.6875 0
0.5 0.71875 0
0.53125 0.71875 0
0.53125 0.6875 0
0.5625 0.6875 0
0.53125 0.71875 0
0.5625 0.71875 0
0.5 0.71875 0
0.53125 0.71875 0
0.5 0.75 0
0.53125 0.75 0
0.53125 0.71875 0
0.5625 0.71875 0
0.53125 0.75 0
0.5625 0.75 0
0.5625 0.6875 0
0.59375 0.6875 0
0.5625 0.71875 0
0.59375 0.71875 0
0.59375 0.6875 0
0.625 0.6875 0
0.59375 0.71875 0
0.625 0.71875 0
0.5625 0.71875 0
0.59375 0.71875 0
0.5625 0.75 0
0.59375 0.75 0
0.59375 0.71875 0
0.625 0.71875 0
0.59375 0.75 0
0.625 0.75 0
0.625 0.625 0
0.65625 0.625 0
0.625 0.65625 0
0.65625 0.65625 0
0.65625 0.625 0
0.6875 0.625 0
0.65625 0.65625 0
0.6875 0.65625 0
0.625 0.65625 0
0.65625 0.65625 0
0.625 0.6875 0
0.65625 0.6875 0
0.65625 0.65625 0
0.6875 0.65625 0
0.65625 0.6875 0
0.6875 0.6875 0
0.6875 0.625 0
0.71875 0.625 0
0.6875 0.65625 0
0.71875 0.65625 0
0.71875 0.625 0
0.75 0.625 0
0.71875 0.65625 0
0.75 0.65625 0
0.6875 0.65625 0
0.71875 0.65625 0
0.6875 0.6875 0
0.71875 0.6875 0
0.71875 0.65625 0
0.75 0.65625 0
0.71875 0.6875 0
0.75 0.6875 0
0.625 0.6875 0
0.65625 0.6875 0
0.625 0.71875 0
0.65625 0.71875 0
0.65625 0.6875 0
0.6875 0.6875 0
0.65625 0.71875 0
0.6875 0.71875 0
0.625 0.71875 0
0.65625 0.71875 0
0.625 0.75 0
0.65625 0.75 0
0.65625 0.71875 0
0.6875 0.71875 0
0.65625 0.75 0
0.6875 0.75 0
0.6875 0.6875 0
0.71875 0.6875 0
0.6875 0.71875 0
0.71875 0.71875 0
0.71875 0.6875 0
0.75 0.6875 0
0.71875 0.71875 0
0.75 0.71875 0
0.6875 0.71875 0
0.71875 0.71875 0
0.6875 0.75 0
0.71875 0.75 0
0.71875 0.71875 0
0.75 0.71875 0
0.71875 0.75 0
0.75 0.75 0
0.75 0.5 0
0.78125 0.5 0
0.75 0.53125 0
0.78125 0.53125 0
0.78125 0.5 0
0.8125 0.5 0
0.78125 0.53125 0
0.8125 0.53125 0
0.75 0.53125 0
0.78125 0.53125 0
0.75 0.5625 0
0.78125 0.5625 0
0.78125 0.53125 0
0.8125 0.53125 0
0.78125 0.5625 0
0.8125 0.5625 0
0.8125 0.5 0
0.84375 0.5 0
0.8125 0.53125 0
0.84375 0.53125 0
0.84375 0.5 0
0.875 0.5 0
0.84375 0.53125 0
0.875 0.53125 0
0.8125 0.53125 0
0.84375 0.53125 0
0.8125 0.5625 0
0.84375 0.5625 0
0.84375 0.53125 0
0.875 0.53125 0
0.84375 0.5625 0
0.875 0.5625 0
0.75 0.5625 0
0.78125 0.5625 0
0.75 0.59375 0
0.78125 0.59375 0
0.78125 0.5625 0
0.8125 0.5625 0
0.78125 0.59375 0
0.8125 0.59375 0
0.75 0.59375 0
0.78125 0.59375 0
0.75 0.625 0
0.78125 0.625 0
0.78125 0.59375 0
0.8125 0.59375 0
0.78125 0.625 0
0.8125 0.625 0
0.8125 0.5625 0
0.84375 0.5625 0
0.8125 0.59375 0
0.84375 0.59375 0
0.84375 0.5625 0
0.875 0.5625 0
0.84375 0.59375 0
0.875 0.59375 0
0.8125 0.59375 0
0.84375 0.59375 0
0.8125 0.625 0
0.84375 0.625 0
0.84375 0.59375 0
0.875 0.59375 0
0.84375 0.625 0
0.875 0.625 0
0.875 0.5 0
0.90625 0.5 0
0.875 0.53125 0
0.90625 0.53125 0
0.90625 0.5 0
0.9375 0.5 0
0.90625 0.53125 0
0.9375 0.53125 0
0.875 0.53125 0
0.90625 0.53125 0
0.875 0.5625 0
0.90625 0.5625 0
0.90625 0.53125 0
0.9375 0.53125 0
0.90625 0.5625 0
0.9375 0.5625 0
0.9375 0.5 0
0.96875 0.5 0
0.9375 0.53125 0
0.96875 0.53125 0
0.96875 0.5 0
1 0.5 0
0.96875 0.53125 0
1 0.53125 0
0.9375 0.53125 0
0.96875 0.53125 0
0.9375 0.5625 0
0.96875 0.5625 0
0.96875 0.53125 0
1 0.53125 0
0.96875 0.5625 0
1 0.5625 0
0.875 0.5625 0
0.90625 0.5625 0
0.875 0.59375 0
0.90625 0.59375 0
0.90625 0.5625 0
0.9375 0.5625 0
0.90625 0.59375 0
0.9375 0.59375 0
0.875 0.59375 0
0.90625 0.59375 0
0.875 0.625 0
0.90625 0.625 0
0.90625 0.59375 0
0.9375 0.59375 0
0.90625 0.625 0
0.9375 0.625 0
0.9375 0.5625 0
0.96875 0.5625 0
0.9375 0.59375 0
0.96875 0.59375 0
0.96875 0.5625 0
1 0.5625 0
0.96875 0.59375 0
1 0.59375 0
0.9375 0.59375 0
0.96875 0.59375 0
0.9375 0.625 0
0.96875 0.625 0
0.96875 0.59375 0
1 0.59375 0
0.96875 0.625 0
1 0.625 0
0.75 0.625 0
0.78125 0.625 0
0.75 0.65625 0
0.78125 0.65625 0
0.78125 0.625 0
0.8125 0.625 0
0.78125 0.65625 0
0.8125 0.65625 0
0.75 0.65625 0
0.78125 0.65625 0
0.75 0.6875 0
0.78125 0.6875 0
0.78125 0.65625 0
0.8125 0.65625 0
0.78125 0.6875 0
0.8125 0.6875 0
0.8125 0.625 0
0.84375 0.625 0
0.8125 0.65625 0
0.84375 0.65625 0
0.84375 0.625 0
0.875 0.625 0
0.84375 0.65625 0
0.875 0.65625 0
0.8125 0.65625 0
0.84375 0.65625 0
0.8125 0.6875 0
0.84375 0.6875 0
0.84375 0.65625 0
0.875 0.65625 0
0.84375 0.6875 0
0.875 0.6875 0
0.75 0.6875 0
0.78125 0.6875 0
0.75 0.71875 0
0.78125 0.71875 0
0.78125 0.6875 0
0.8125 0.6875 0
0.78125 0.71875 0
0.8125 0.71875 0
0.75 0.71875 0
0.78125 0.71875 0
0.75 0.75 0
0.78125 0.75 0
0.78125 0.71875 0
0.8125 0.71875 0
0.78125 0.75 0
0.8125 0.75 0
0.8125 0.6875 0
0.84375 0.6875 0
0.8125 0.71875 0
0.84375 0.71875 0
0.84375 0.6875 0
0.875 0.6875 0
0.84375 0.71875 0
0.875 0.71875 0
0.8125 0.71875 0
0.84375 0.71875 0
0.8125 0.75 0
0.84375 0.75 0
0.84375 0.71875 0
0.875 0.71875 0
0.84375 0.75 0
0.875 0.75 0
0.875 0.625 0
0.90625 0.625 0
0.875 0.65625 0
0.90625 0.65625 0
0.90625 0.625 0
0.9375 0.625 0
0.90625 0.65625 0
0.9375 0.65625 0
0.875 0.65625 0
0.90625 0.65625 0
0.875 0.6875 0
0.90625 0.6875 0
0.90625 0.65625 0
0.9375 0.65625 0
0.90625 0.6875 0
0.9375 0.6875 0
0.9375 0.625 0
0.96875 0.625 0
0.9375 0.65625 0
0.96875 0.65625 0
0.96875 0.625 0
1 0.625 0
0.96875 0.65625 0
1 0.65625 0
0.9375 0.65625 0
0.96875 0.65625 0
0.9375 0.6875 0
0.96875 0.6875 0
0.96875 0.65625 0
1 0.65625 0
0.96875 0.6875 0
1 0.6875 0
0.875 0.6875 0
0.90625 0.6875 0
0.875 0.71875 0
0.90625 0.71875 0
0.90625 0.6875 0
0.9375 0.6875 0
0.90625 0.71875 0
0.9375 0.71875 0
0.875 0.71875 0
0.90625 0.71875 0
0.875 0.75 0
0.90625 0.75 0
0.90625 0.71875 0
0.9375 0.71875 0
0.90625 0.75 0
0.9375 0.75 0
0.9375 0.6875 0
0.96875 0.6875 0
0.9375 0.71875 0
0.96875 0.71875 0
0.96875 0.6875 0
1 0.6875 0
0.96875 0.71875 0
1 0.71875 0
0.9375 0.71875 0
0.96875 0.71875 0
0.9375 0.75 0
0.96875 0.75 0
0.96875 0.71875 0
1 0.71875 0
0.96875 0.75 0
1 0.75 0
0.5 0.75 0
0.53125 0.75 0
0.5 0.78125 0
0.53125 0.78125 0
0.53125 0.75 0
0.5625 0.75 0
0.53125 0.78125 0
0.5625 0.78125 0
0.5 0.78125 0
0.53125 0.78125 0
0.5 0.8125 0
0.53125 0.8125 0
0.53125 0.78125 0
0.5625 0.78125 0
0.53125 0.8125 0
0.5625 0.8125 0
0.5625 0.75 0
0.59375 0.75 0
0.5625 0.78125 0
0.59375 0.78125 0
0.59375 0.75 0
0.625 0.75 0
0.59375 0.78125 0
0.625 0.78125 0
0.5625 0.78125 0
0.59375 0.78125 0
0.5625 0.8125 0
0.59375 0.8125 0
0.59375 0.78125 0
0.625 0.78125 0
0.59375 0.8125 0
0.625 0.8125 0
0.5 0.8125 0
0.53125 0.8125 0
0.5 0.84375 0
0.53125 0.84375 0
0.53125 0.8125 0
0.5625 0.8125 0
0.53125 0.84375 0
0.5625 0.84375 0
0.5 0.84375 0
0.53125 0.84375 0
0.5 0.875 0
0.53125 0.875 0
0.53125 0.84375 0
0.5625 0.84375 0
0.53125 0.875 0
0.5625 0.875 0
0.5625 0.8125 0
0.59375 0.8125 0
0.5625 0.84375 0
0.59375 0.84375 0
0.59375 0.8125 0
0.625 0.8125 0
0.59375 0.84375 0
0.625 0.84375 0
0.5625 0.84375 0
0.59375 0.84375 0
0.5625 0.875 0
0.59375 0.875 0
0.59375 0.84375 0
0.625 0.84375 0
0.59375 0.875 0
0.625 0.875 0
0.625 0.75 0
0.65625 0.75 0
0.625 0.78125 0
0.65625 0.78125 0
0.65625 0.75 0
0.6875 0.75 0
0.65625 0.78125 0
0.6875 0.78125 0
0.625 0.78125 0
0.65625 0.78125 0
0.625 0.8125 0
0.65625 0.8125 0
0.65625 0.78125 0
0.6875 0.78125 0
0.65625 0.8125 0
0.6875 0.8125 0
0.6875 0.75 0
0.71875 0.75 0
0.6875 0.78125 0
0.71875 0.78125 0
0.71875 0.75 0
0.75 0.75 0
0.71875 0.78125 0
0.75 0.78125 0
0.6875 0.78125 0
0.71875 0.78125 0
0.6875 0.8125 0
0.71875 0.8125 0
0.71875 0.78125 0
0.75 0.78125 0
0.71875 0.8125 0
0.75 0.8125 0
0.625 0.8125 0
0.65625 0.8125 0
0.625 0.84375 0
0.65625 0.84375 0
0.65625 0.8125 0
0.6875 0.8125 0
0.65625 0.84375 0
0.6875 0.84375 0
0.625 0.84375 0
0.65625 0.84375 0
0.625 0.875 0
0.65625 0.875 0
0.65625 0.84375 0
0.6875 0.84375 0
0.65625 0.875 0
0.6875 0.875 0
0.6875 0.8125 0
0.71875 0.8125 0
0.6875 0.84375 0
[...]
POINT_DATA 10240
SCALARS x_dis double 1
LOOKUP_TABLE default
-0.000124729 -9.51738e-05 -0.000231705 -0.000192884 -9.51738e-05 -6.78077e-05 -0.000192884 -0.000155962 -0.000231705 -0.000192884 -0.000328083 -0.00028131 -0.000192884 -0.000155962 -0.00028131 -0.000236211 -0.000328083 -0.00028131 -0.000412198 -0.000358936 -0.00028131 -0.000236211 -0.000358936 -0.000307062 -0.000412198 -0.000358936 -0.000482599 -0.000424362 -0.000358936 -0.000307062 -0.000424362 -0.000367033 -0.00059754 -0.000540624 -0.000659736 -0.000600369 -0.000540624 -0.000482599 -0.000600369 -0.000538789 -0.000659736 -0.000600369 -0.00070445 -0.000643747 -0.000600369 -0.000538789 -0.000643747 -0.000579928 -0.000482599 -0.000424362 -0.000538789 -0.00047656 -0.000424362 -0.000367033 -0.00047656 -0.00041485 -0.000538789 -0.00047656 -0.000579928 -0.000514756 -0.00047656 -0.00041485 -0.000514756 -0.000449656 0.000456688 0.000400429 0.0004168 0.000378041 0.000400429 0.000356973 0.000378041 0.000344695 0.0004168 0.000378041 0.000359883 0.000339125 0.000378041 0.000344695 0.000339125 0.000318188 0.000356973 0.000322176 0.000344695 0.000316782 0.000322176 0.000294047 0.000316782 0.000293783 0.000344695 0.000316782 0.000318188 0.000299335 0.000316782 0.000293783 0.000299335 0.00028331 0.000359883 0.000339125 0.000305634 0.000294489 0.000339125 0.000318188 0.000294489 0.000283696 0.000305634 0.000294489 0.000252785 0.000248207 0.000294489 0.000283696 0.000248207 0.000245191 0.000318188 0.000299335 0.000283696 0.00027371 0.000299335 0.00028331 0.00027371 0.000265186 0.000283696 0.00027371 0.000245191 0.000243026 0.00027371 0.000265186 0.000243026 0.000241724 0.000273957 0.000260333 0.000203843 0.000199228 0.000260333 0.000252785 0.000199228 0.000198407 0.000203843 0.000199228 0.000130256 0.000135322 0.000199228 0.000198407 0.000135322 0.000142624 0.000122707 0.000126372 2.57009e-05 4.0803e-05 0.000126372 0.000130256 4.0803e-05 5.53942e-05 2.57009e-05 4.0803e-05 -6.78077e-05 -4.225e-05 4.0803e-05 5.53942e-05 -4.225e-05 -1.76605e-05 0.000130256 0.000135322 5.53942e-05 7.03644e-05 0.000135322 0.000142624 7.03644e-05 8.61592e-05 5.53942e-05 7.03644e-05 -1.76605e-05 6.47843e-06 7.03644e-05 8.61592e-05 6.47843e-06 3.05103e-05 0.000252785 0.000248207 0.000198407 0.000200611 0.000248207 0.000245191 0.000200611 0.0002045 0.000198407 0.000200611 0.000142624 0.000151919 0.000200611 0.0002045 0.000151919 0.000162552 0.000245191 0.000243026 0.0002045 0.000209317 0.000243026 0.000241724 0.000209317 0.000214728 0.0002045 0.000209317 0.000162552 0.000173894 0.000209317 0.000214728 0.000173894 0.000185553 0.000142624 0.000151919 8.61592e-05 0.000102859 0.000151919 0.000162552 0.000102859 0.000120189 8.61592e-05 0.000102859 3.05103e-05 5.45148e-05 0.000102859 0.000120189 5.45148e-05 7.8386e-05 0.000162552 0.000173894 0.000120189 0.000137774 0.000173894 0.000185553 0.000137774 0.00015529 0.000120189 0.000137774 7.8386e-05 0.000101927 0.000137774 0.00015529 0.000101927 0.000124918 0.000294047 0.000271419 0.000293783 0.000275162 0.000271419 0.000253534 0.000275162 0.000260451 0.000293783 0.000275162 0.00028331 0.000270264 0.000275162 0.000260451 0.000270264 0.000260105 0.000253534 0.000239848 0.000260451 0.000249239 0.000239848 0.000229914 0.000249239 0.000241141 0.000260451 0.000249239 0.000260105 0.00025264 0.000249239 0.000241141 0.00025264 0.000247623 0.00028331 0.000270264 0.000265186 0.000258468 0.000270264 0.000260105 0.000258468 0.000253667 0.000265186 0.000258468 0.000241724 0.000241446 0.000258468 0.000253667 0.000241446 0.000242293 0.000260105 0.00025264 0.000253667 0.000250747 0.00025264 0.000247623 0.000250747 0.000249579 0.000253667 0.000250747 0.000242293 0.000244275 0.000250747 0.000249579 0.000244275 0.000247313 0.000229914 0.000223274 0.000241141 0.000235767 0.000223274 0.000219369 0.000235767 0.000232697 0.000241141 0.000235767 0.000247623 0.000244769 0.000235767 0.000232697 0.000244769 0.000243744 0.000219369 0.000217501 0.000232697 0.000231465 0.000217501 0.000217037 0.000231465 0.000231472 0.000232697 0.000231465 0.000243744 0.000244111 0.000231465 0.000231472 0.000244111 0.000245188 0.000247623 0.000244769 0.000249579 0.000249954 0.000244769 0.000243744 0.000249954 0.000251582 0.000249579 0.000249954 0.000247313 0.00025124 0.000249954 0.000251582 0.00025124 0.000255784 0.000243744 0.000244111 0.000251582 0.000254019 0.000244111 0.000245188 0.000254019 0.000256521 0.000251582 0.000254019 0.000255784 0.000260515 0.000254019 0.000256521 0.000260515 0.000264737 0.000241724 0.000241446 0.000214728 0.000220653 0.000241446 0.000242293 0.000220653 0.000227083 0.000214728 0.000220653 0.000185553 0.000197315 0.000220653 0.000227083 0.000197315 0.00020906 0.000242293 0.000244275 0.000227083 0.000233989 0.000244275 0.000247313 0.000233989 0.000241289 0.000227083 0.000233989 0.00020906 0.000220699 0.000233989 0.000241289 0.000220699 0.000232119 0.000185553 0.000197315 0.00015529 0.000172488 0.000197315 0.00020906 0.000172488 0.000189189 0.00015529 0.000172488 0.000124918 0.000147137 0.000172488 0.000189189 0.000147137 0.000168388 0.00020906 0.000220699 0.000189189 0.000205249 0.000220699 0.000232119 0.000205249 0.000220531 0.000189189 0.000205249 0.000168388 0.000188502 0.000205249 0.000220531 0.000188502 0.000207322 0.000247313 0.00025124 0.000241289 0.000248828 0.00025124 0.000255784 0.000248828 0.000256354 0.000241289 0.000248828 0.000232119 0.000243166 0.000248828 0.000256354 0.000243166 0.000253616 0.000255784 0.000260515 0.000256354 0.000263483 0.000260515 0.000264737 0.000263483 0.00026964 0.000256354 0.000263483 0.000253616 0.000263161 0.000263483 0.00026964 0.000263161 0.000271387 0.000232119 0.000243166 0.000220531 0.00023488 0.000243166 0.000253616 0.00023488 0.000248114 0.000220531 0.00023488 0.000207322 0.000224707 0.00023488 0.000248114 0.000224707 0.000240531 0.000253616 0.000263161 0.000248114 0.000260024 0.000263161 0.000271387 0.000260024 0.000270371 0.000248114 0.000260024 0.000240531 0.000254693 0.000260024 0.000270371 0.000254693 0.000267139 -6.78077e-05 -4.225e-05 -0.000155962 -0.000120813 -4.225e-05 -1.76605e-05 -0.000120813 -8.71422e-05 -0.000155962 -0.000120813 -0.000236211 -0.000192939 -0.000120813 -8.71422e-05 -0.000192939 -0.000151346 -1.76605e-05 6.47843e-06 -8.71422e-05 -5.45563e-05 6.47843e-06 3.05103e-05 -5.45563e-05 -2.28234e-05 -8.71422e-05 -5.45563e-05 -0.000151346 -0.000111241 -5.45563e-05 -2.28234e-05 -0.000111241 -7.24987e-05 -0.000236211 -0.000192939 -0.000307062 -0.000256965 -0.000192939 -0.000151346 -0.000256965 -0.000208726 -0.000307062 -0.000256965 -0.000367033 -0.000311351 -0.000256965 -0.000208726 -0.000311351 -0.00025772 -0.000151346 -0.000111241 -0.000208726 -0.000162196 -0.000111241 -7.24987e-05 -0.000162196 -0.000117307 -0.000208726 -0.000162196 -0.00025772 -0.000206078 -0.000162196 -0.000117307 -0.000206078 -0.000156078 3.05103e-05 5.45148e-05 -2.28234e-05 8.11754e-06 5.45148e-05 7.8386e-05 8.11754e-06 3.82006e-05 -2.28234e-05 8.11754e-06 -7.24987e-05 -3.51499e-05 8.11754e-06 3.82006e-05 -3.51499e-05 6.90345e-07 7.8386e-05 0.000101927 3.82006e-05 6.73272e-05 0.000101927 0.000124918 6.73272e-05 9.53718e-05 3.82006e-05 6.73272e-05 6.90345e-07 3.49321e-05 6.73272e-05 9.53718e-05 3.49321e-05 6.75552e-05 -7.24987e-05 -3.51499e-05 -0.000117307 -7.41622e-05 -3.51499e-05 6.90345e-07 -7.41622e-05 -3.31294e-05 -0.000117307 -7.41622e-05 -0.000156078 -0.000107898 -7.41622e-05 -3.31294e-05 -0.000107898 -6.21938e-05 6.90345e-07 3.49321e-05 -3.31294e-05 5.67326e-06 3.49321e-05 6.75552e-05 5.67326e-06 4.23161e-05 -3.31294e-05 5.67326e-06 -6.21938e-05 -1.96449e-05 5.67326e-06 4.23161e-05 -1.96449e-05 2.0486e-05 -0.000367033 -0.000311351 -0.00041485 -0.000354609 -0.000311351 -0.00025772 -0.000354609 -0.000296591 -0.00041485 -0.000354609 -0.000449656 -0.000385721 -0.000354609 -0.000296591 -0.000385721 -0.000323913 -0.00025772 -0.000206078 -0.000296591 -0.000241289 -0.000206078 -0.000156078 -0.000241289 -0.000188082 -0.000296591 -0.000241289 -0.000323913 -0.000265415 -0.000241289 -0.000188082 -0.000265415 -0.000211902 -0.000156078 -0.000107898 -0.000188082 -0.000135296 -0.000107898 -6.21938e-05 -0.000135296 -8.59171e-05 -0.000188082 -0.000135296 -0.000211902 -0.000158385 -0.000135296 -8.59171e-05 -0.000158385 -0.00010311 -6.21938e-05 -1.96449e-05 -8.59171e-05 -4.01291e-05 -1.96449e-05 2.0486e-05 -4.01291e-05 2.61215e-06 -8.59171e-05 -4.01291e-05 -0.00010311 -5.74715e-05 -4.01291e-05 2.61215e-06 -5.74715e-05 -8.50754e-06 -0.00010311 -5.74715e-05 -0.000119743 -5.78227e-05 -5.74715e-05 -8.50754e-06 -5.78227e-05 -1.08675e-05 -0.000119743 -5.78227e-05 -7.46841e-05 -4.42522e-05 -5.78227e-05 -1.08675e-05 -4.42522e-05 -9.49727e-06 0.000124918 0.000147137 9.53718e-05 0.000122173 0.000147137 0.000168388 0.000122173 0.000147549 9.53718e-05 0.000122173 6.75552e-05 9.84746e-05 0.000122173 0.000147549 9.84746e-05 0.000127539 0.000168388 0.000188502 0.000147549 0.000171319 0.000188502 0.000207322 0.000171319 0.000193321 0.000147549 0.000171319 0.000127539 0.000154553 0.000171319 0.000193321 0.000154553 0.000179359 6.75552e-05 9.84746e-05 4.23161e-05 7.68903e-05 9.84746e-05 0.000127539 7.68903e-05 0.000109201 4.23161e-05 7.68903e-05 2.0486e-05 5.82269e-05 7.68903e-05 0.000109201 5.82269e-05 9.33934e-05 0.000127539 0.000154553 0.000109201 0.000139035 0.000154553 0.000179359 0.000139035 0.000166234 0.000109201 0.000139035 9.33934e-05 0.000125547 0.000139035 0.000166234 0.000125547 0.000154669 0.000207322 0.000224707 0.000193321 0.00021344 0.000224707 0.000240531 0.00021344 0.000231616 0.000193321 0.00021344 0.000179359 0.00020188 0.00021344 0.000231616 0.00020188 0.000222137 0.000240531 0.000254693 0.000231616 0.000247868 0.000254693 0.000267139 0.000247868 0.000262314 0.000231616 0.000247868 0.000222137 0.000240268 0.000247868 0.000262314 0.000240268 0.000256556 0.000179359 0.00020188 0.000166234 0.000190792 0.00020188 0.000222137 0.000190792 0.000212826 0.000166234 0.000190792 0.000154669 0.000180863 0.000190792 0.000212826 0.000180863 0.000204339 0.000222137 0.000240268 0.000212826 0.000232588 0.000240268 0.000256556 0.000232588 0.000250505 0.000212826 0.000232588 0.000204339 0.000225452 0.000232588 0.000250505 0.000225452 0.000244743 2.0486e-05 5.82269e-05 2.61215e-06 4.36169e-05 5.82269e-05 9.33934e-05 4.36169e-05 8.09489e-05 2.61215e-06 4.36169e-05 -8.50754e-06 3.41886e-05 4.36169e-05 8.09489e-05 3.41886e-05 7.24678e-05 9.33934e-05 0.000125547 8.09489e-05 0.000114764 0.000125547 0.000154669 0.000114764 0.000145263 8.09489e-05 0.000114764 7.24678e-05 0.000107116 0.000114764 0.000145263 0.000107116 0.000138415 -8.50754e-06 3.41886e-05 -1.08675e-05 3.00433e-05 3.41886e-05 7.24678e-05 3.00433e-05 6.79077e-05 -1.08675e-05 3.00433e-05 -9.49727e-06 2.92732e-05 3.00433e-05 6.79077e-05 2.92732e-05 6.65481e-05 7.24678e-05 0.000107116 6.79077e-05 0.000102675 0.000107116 0.000138415 0.000102675 0.000134302 6.79077e-05 0.000102675 6.65481e-05 0.000101241 0.000102675 0.000134302 0.000101241 0.000132937 0.000154669 0.000180863 0.000145263 0.000172655 0.000180863 0.000204339 0.000172655 0.000197221 0.000145263 0.000172655 0.000138415 0.000166573 0.000172655 0.000197221 0.000166573 0.000191877 0.000204339 0.000225452 0.000197221 0.000219382 0.000225452 0.000244743 0.000219382 0.000239762 0.000197221 0.000219382 0.000191877 0.00021478 0.000219382 0.000239762 0.00021478 0.000235943 0.000138415 0.000166573 0.000134302 0.000162855 0.000166573 0.000191877 0.000162855 0.000188577 0.000134302 0.000162855 0.000132937 0.000161608 0.000162855 0.000188577 0.000161608 0.000187463 0.000191877 0.00021478 0.000188577 0.000211916 0.00021478 0.000235943 0.000211916 0.000233551 0.000188577 0.000211916 0.000187463 0.000210946 0.000211916 0.000233551 0.000210946 0.000232737 -0.000651386 -0.000623332 -0.000644049 -0.000616059 -0.000623332 -0.000593453 -0.000616059 -0.000586343 -0.000644049 -0.000616059 -0.000622035 -0.000594267 -0.000616059 -0.000586343 -0.000594267 -0.000565069 -0.000593453 -0.000563099 -0.000586343 -0.000556237 -0.000563099 -0.000533294 -0.000556237 -0.000526745 -0.000586343 -0.000556237 -0.000565069 -0.000535729 -0.000556237 -0.000526745 -0.000535729 -0.000507185 -0.000622035 -0.000594267 -0.000585332 -0.000558054 -0.000594267 -0.000565069 -0.000558054 -0.000529816 -0.000585332 -0.000558054 -0.000533989 -0.000507635 -0.000558054 -0.000529816 -0.000507635 -0.000480927 -0.000565069 -0.000535729 -0.000529816 -0.000501819 -0.000535729 -0.000507185 -0.000501819 -0.000474897 -0.000529816 -0.000501819 -0.000480927 -0.000454954 -0.000501819 -0.000474897 -0.000454954 -0.000430401 -0.000533989 -0.000507635 -0.000468162 -0.000443369 -0.000507635 -0.000480927 -0.000443369 -0.000418952 -0.000468162 -0.000443369 -0.000388065 -0.000365739 -0.000443369 -0.000418952 -0.000365739 -0.000344832 -0.000480927 -0.000454954 -0.000418952 -0.000395852 -0.000454954 -0.000430401 -0.000395852 -0.0003745 -0.000418952 -0.000395852 -0.000344832 -0.000325573 -0.000395852 -0.0003745 -0.000325573 -0.000308292 -0.000344832 -0.000325573 -0.000259873 -0.000245404 -0.000325573 -0.000308292 -0.000245404 -0.000233204 -0.000259873 -0.000245404 -0.000165255 -0.000157001 -0.000245404 -0.000233204 -0.000157001 -0.000150979 -0.000165255 -0.000157001 -6.32306e-05 -6.251e-05 -0.000157001 -0.000150979 -6.251e-05 -6.37443e-05 -6.32306e-05 -6.251e-05 4.36752e-05 3.55743e-05 -6.251e-05 -6.37443e-05 3.55743e-05 2.58675e-05 -0.000533294 -0.000504758 -0.000526745 -0.00049856 -0.000504758 -0.000477957 -0.00049856 -0.000472124 -0.000526745 -0.00049856 -0.000507185 -0.000480058 -0.00049856 -0.000472124 -0.000480058 -0.000454724 -0.000477957 -0.000453165 -0.000472124 -0.000447695 -0.000453165 -0.000430469 -0.000447695 -0.000425346 -0.000472124 -0.000447695 -0.000454724 -0.00043139 -0.000447695 -0.000425346 -0.00043139 -0.000410078 -0.000507185 -0.000480058 -0.000474897 -0.000449559 -0.000480058 -0.000454724 -0.000449559 -0.000426077 -0.000474897 -0.000449559 -0.000430401 -0.00040762 -0.000449559 -0.000426077 -0.00040762 -0.000386753 -0.000454724 -0.00043139 -0.000426077 -0.000404569 -0.00043139 -0.000410078 -0.000404569 -0.000384986 -0.000426077 -0.000404569 -0.000386753 -0.000367795 -0.000404569 -0.000384986 -0.000367795 -0.000350623 -0.000430469 -0.000409837 -0.000425346 -0.000405033 -0.000409837 -0.000391163 -0.000405033 -0.000386646 -0.000425346 -0.000405033 -0.000410078 -0.000390726 -0.000405033 -0.000386646 -0.000390726 -0.000373198 -0.000391163 -0.000374267 -0.000386646 -0.000370001 -0.000374267 -0.000358922 -0.000370001 -0.000354868 -0.000386646 -0.000370001 -0.000373198 -0.000357301 -0.000370001 -0.000354868 -0.000357301 -0.000342803 -0.000410078 -0.000390726 -0.000384986 -0.000367227 -0.000390726 -0.000373198 -0.000367227 -0.000351126 -0.000384986 -0.000367227 -0.000350623 -0.000335079 -0.000367227 -0.000351126 -0.000335079 -0.000320955 -0.000373198 -0.000357301 -0.000351126 -0.00033647 -0.000357301 -0.000342803 -0.00033647 -0.000323026 -0.000351126 -0.00033647 -0.000320955 -0.000308019 -0.00033647 -0.000323026 -0.000308019 -0.000296038 -0.000430401 -0.00040762 -0.0003745 -0.000355079 -0.00040762 -0.000386753 -0.000355079 -0.000337599 -0.0003745 -0.000355079 -0.000308292 -0.000293081 -0.000355079 -0.000337599 -0.000293081 -0.000279749 -0.000386753 -0.000367795 -0.000337599 -0.000321904 -0.000367795 -0.000350623 -0.000321904 -0.000307803 -0.000337599 -0.000321904 -0.000279749 -0.000268022 -0.000321904 -0.000307803 -0.000268022 -0.000257617 -0.000308292 -0.000293081 -0.000233204 -0.000223074 -0.000293081 -0.000279749 -0.000223074 -0.000214658 -0.000233204 -0.000223074 -0.000150979 -0.000146834 -0.000223074 -0.000214658 -0.000146834 -0.000144111 -0.000279749 -0.000268022 -0.000214658 -0.000207575 -0.000268022 -0.000257617 -0.000207575 -0.000201432 -0.000214658 -0.000207575 -0.000144111 -0.000142287 -0.000207575 -0.000201432 -0.000142287 -0.000140884 -0.000350623 -0.000335079 -0.000307803 -0.000295066 -0.000335079 -0.000320955 -0.000295066 -0.00028344 -0.000307803 -0.000295066 -0.000257617 -0.00024823 -0.000295066 -0.00028344 -0.00024823 -0.000239576 -0.000320955 -0.000308019 -0.00028344 -0.000272678 -0.000308019 -0.000296038 -0.000272678 -0.000262549 -0.00028344 -0.000272678 -0.000239576 -0.000231398 -0.000272678 -0.000262549 -0.000231398 -0.000223475 -0.000257617 -0.00024823 -0.000201432 -0.000195873 -0.00024823 -0.000239576 -0.000195873 -0.000190593 -0.000201432 -0.000195873 -0.000140884 -0.000139528 -0.000195873 -0.000190593 -0.000139528 -0.000137925 -0.000239576 -0.000231398 -0.000190593 -0.000185343 -0.000231398 -0.000223475 -0.000185343 -0.000179923 -0.000190593 -0.000185343 -0.000137925 -0.000135857 -0.000185343 -0.000179923 -0.000135857 -0.000133166 -0.000358922 -0.000344858 -0.000354868 -0.00034098 -0.000344858 -0.000331768 -0.00034098 -0.000328033 -0.000354868 -0.00034098 -0.000342803 -0.000329442 -0.00034098 -0.000328033 -0.000329442 -0.000316927 -0.000331768 -0.0003193 -0.000328033 -0.000315684 -0.0003193 -0.000307045 -0.000315684 -0.00030353 -0.000328033 -0.000315684 -0.000316927 -0.000304932 -0.000315684 -0.00030353 -0.000304932 -0.000293081 -0.000342803 -0.000329442 -0.000323026 -0.000310541 -0.000329442 -0.000316927 -0.000310541 -0.000298746 -0.000323026 -0.000310541 -0.000296038 -0.000284773 -0.000310541 -0.000298746 -0.000284773 -0.000273983 -0.000316927 -0.000304932 -0.000298746 -0.000287344 -0.000304932 -0.000293081 -0.000287344 -0.000275999 -0.000298746 -0.000287344 -0.000273983 -0.000263412 -0.000287344 -0.000275999 -0.000263412 -0.000252775 -0.000307045 -0.000294521 -0.00030353 -0.000291099 -0.000294521 -0.000281147 -0.000291099 -0.000277823 -0.00030353 -0.000291099 -0.000293081 -0.000280931 -0.000291099 -0.000277823 -0.000280931 -0.00026795 -0.000281147 -0.000266219 -0.000277823 -0.000263012 -0.000266219 -0.000248878 -0.000263012 -0.000245821 -0.000277823 -0.000263012 -0.00026795 -0.000253486 -0.000263012 -0.000245821 -0.000253486 -0.000236742 -0.000293081 -0.000280931 -0.000275999 -0.000264316 -0.000280931 -0.00026795 -0.000264316 -0.000251821 -0.000275999 -0.000264316 -0.000252775 -0.000241744 -0.000264316 -0.000251821 -0.000241744 -0.00022992 -0.00026795 -0.000253486 -0.000251821 -0.000237928 -0.000253486 -0.000236742 -0.000237928 -0.000221915 -0.000251821 -0.000237928 -0.00022992 -0.000216808 -0.000237928 -0.000221915 -0.000216808 -0.000201791 -0.000296038 -0.000284773 -0.000262549 -0.000252834 -0.000284773 -0.000273983 -0.000252834 -0.000243326 -0.000262549 -0.000252834 -0.000223475 -0.000215613 -0.000252834 -0.000243326 -0.000215613 -0.000207648 -0.000273983 -0.000263412 -0.000243326 -0.000233819 -0.000263412 -0.000252775 -0.000233819 -0.000224091 -0.000243326 -0.000233819 -0.000207648 -0.000199428 -0.000233819 -0.000224091 -0.000199428 -0.000190801 -0.000223475 -0.000215613 -0.000179923 -0.000174177 -0.000215613 -0.000207648 -0.000174177 -0.000167988 -0.000179923 -0.000174177 -0.000133166 -0.000129744 -0.000174177 -0.000167988 -0.000129744 -0.000125523 -0.000207648 -0.000199428 -0.000167988 -0.00016126 -0.000199428 -0.000190801 -0.00016126 -0.000153915 -0.000167988 -0.00016126 -0.000125523 -0.000120465 -0.00016126 -0.000153915 -0.000120465 -0.000114558 -0.000252775 -0.000241744 -0.000224091 -0.00021389 -0.000241744 -0.00022992 -0.00021389 -0.000202911 -0.000224091 -0.00021389 -0.000190801 -0.000181601 -0.00021389 -0.000202911 -0.000181601 -0.000171627 -0.00022992 -0.000216808 -0.000202911 -0.000190772 -0.000216808 -0.000201791 -0.000190772 -0.000176988 -0.000202911 -0.000190772 -0.000171627 -0.000160626 -0.000190772 -0.000176988 -0.000160626 -0.000148273 -0.000190801 -0.000181601 -0.000153915 -0.000145871 -0.000181601 -0.000171627 -0.000145871 -0.000137041 -0.000153915 -0.000145871 -0.000114558 -0.000107808 -0.000145871 -0.000137041 -0.000107808 -0.000100237 -0.000171627 -0.000160626 -0.000137041 -0.000127313 -0.000160626 -0.000148273 -0.000127313 -0.000116543 -0.000137041 -0.000127313 -0.000100237 -9.18804e-05 -0.000127313 -0.000116543 -9.18804e-05 -8.2789e-05 -0.000150979 -0.000146834 -6.3