# vtk DataFile Version 3.0
#This file was generated by the deal.II library on 2022/11/17 at 0:22:46
ASCII
DATASET UNSTRUCTURED_GRID

POINTS 5680 double
0 0.5 0
0.03125 0.5 0
0 0.53125 0
0.03125 0.53125 0
0.03125 0.5 0
0.0625 0.5 0
0.03125 0.53125 0
0.0625 0.53125 0
0 0.53125 0
0.03125 0.53125 0
0 0.5625 0
0.03125 0.5625 0
0.03125 0.53125 0
0.0625 0.53125 0
0.03125 0.5625 0
0.0625 0.5625 0
0.0625 0.5 0
0.09375 0.5 0
0.0625 0.53125 0
0.09375 0.53125 0
0.09375 0.5 0
0.125 0.5 0
0.09375 0.53125 0
0.125 0.53125 0
0.0625 0.53125 0
0.09375 0.53125 0
0.0625 0.5625 0
0.09375 0.5625 0
0.09375 0.53125 0
0.125 0.53125 0
0.09375 0.5625 0
0.125 0.5625 0
0 0.5625 0
0.03125 0.5625 0
0 0.59375 0
0.03125 0.59375 0
0.03125 0.5625 0
0.0625 0.5625 0
0.03125 0.59375 0
0.0625 0.59375 0
0 0.59375 0
0.03125 0.59375 0
0 0.625 0
0.03125 0.625 0
0.03125 0.59375 0
0.0625 0.59375 0
0.03125 0.625 0
0.0625 0.625 0
0.0625 0.5625 0
0.09375 0.5625 0
0.0625 0.59375 0
0.09375 0.59375 0
0.09375 0.5625 0
0.125 0.5625 0
0.09375 0.59375 0
0.125 0.59375 0
0.0625 0.59375 0
0.09375 0.59375 0
0.0625 0.625 0
0.09375 0.625 0
0.09375 0.59375 0
0.125 0.59375 0
0.09375 0.625 0
0.125 0.625 0
0.125 0.5 0
0.15625 0.5 0
0.125 0.53125 0
0.15625 0.53125 0
0.15625 0.5 0
0.1875 0.5 0
0.15625 0.53125 0
0.1875 0.53125 0
0.125 0.53125 0
0.15625 0.53125 0
0.125 0.5625 0
0.15625 0.5625 0
0.15625 0.53125 0
0.1875 0.53125 0
0.15625 0.5625 0
0.1875 0.5625 0
0.1875 0.5 0
0.21875 0.5 0
0.1875 0.53125 0
0.21875 0.53125 0
0.21875 0.5 0
0.25 0.5 0
0.21875 0.53125 0
0.25 0.53125 0
0.1875 0.53125 0
0.21875 0.53125 0
0.1875 0.5625 0
0.21875 0.5625 0
0.21875 0.53125 0
0.25 0.53125 0
0.21875 0.5625 0
0.25 0.5625 0
0.125 0.5625 0
0.15625 0.5625 0
0.125 0.59375 0
0.15625 0.59375 0
0.15625 0.5625 0
0.1875 0.5625 0
0.15625 0.59375 0
0.1875 0.59375 0
0.125 0.59375 0
0.15625 0.59375 0
0.125 0.625 0
0.15625 0.625 0
0.15625 0.59375 0
0.1875 0.59375 0
0.15625 0.625 0
0.1875 0.625 0
0.1875 0.5625 0
0.21875 0.5625 0
0.1875 0.59375 0
0.21875 0.59375 0
0.21875 0.5625 0
0.25 0.5625 0
0.21875 0.59375 0
0.25 0.59375 0
0.1875 0.59375 0
0.21875 0.59375 0
0.1875 0.625 0
0.21875 0.625 0
0.21875 0.59375 0
0.25 0.59375 0
0.21875 0.625 0
0.25 0.625 0
0 0.625 0
0.03125 0.625 0
0 0.65625 0
0.03125 0.65625 0
0.03125 0.625 0
0.0625 0.625 0
0.03125 0.65625 0
0.0625 0.65625 0
0 0.65625 0
0.03125 0.65625 0
0 0.6875 0
0.03125 0.6875 0
0.03125 0.65625 0
0.0625 0.65625 0
0.03125 0.6875 0
0.0625 0.6875 0
0.0625 0.625 0
0.09375 0.625 0
0.0625 0.65625 0
0.09375 0.65625 0
0.09375 0.625 0
0.125 0.625 0
0.09375 0.65625 0
0.125 0.65625 0
0.0625 0.65625 0
0.09375 0.65625 0
0.0625 0.6875 0
0.09375 0.6875 0
0.09375 0.65625 0
0.125 0.65625 0
0.09375 0.6875 0
0.125 0.6875 0
0 0.6875 0
0.03125 0.6875 0
0 0.71875 0
0.03125 0.71875 0
0.03125 0.6875 0
0.0625 0.6875 0
0.03125 0.71875 0
0.0625 0.71875 0
0 0.71875 0
0.03125 0.71875 0
0 0.75 0
0.03125 0.75 0
0.03125 0.71875 0
0.0625 0.71875 0
0.03125 0.75 0
0.0625 0.75 0
0.0625 0.6875 0
0.09375 0.6875 0
0.0625 0.71875 0
0.09375 0.71875 0
0.09375 0.6875 0
0.125 0.6875 0
0.09375 0.71875 0
0.125 0.71875 0
0.0625 0.71875 0
0.09375 0.71875 0
0.0625 0.75 0
0.09375 0.75 0
0.09375 0.71875 0
0.125 0.71875 0
0.09375 0.75 0
0.125 0.75 0
0.125 0.625 0
0.15625 0.625 0
0.125 0.65625 0
0.15625 0.65625 0
0.15625 0.625 0
0.1875 0.625 0
0.15625 0.65625 0
0.1875 0.65625 0
0.125 0.65625 0
0.15625 0.65625 0
0.125 0.6875 0
0.15625 0.6875 0
0.15625 0.65625 0
0.1875 0.65625 0
0.15625 0.6875 0
0.1875 0.6875 0
0.1875 0.625 0
0.21875 0.625 0
0.1875 0.65625 0
0.21875 0.65625 0
0.21875 0.625 0
0.25 0.625 0
0.21875 0.65625 0
0.25 0.65625 0
0.1875 0.65625 0
0.21875 0.65625 0
0.1875 0.6875 0
0.21875 0.6875 0
0.21875 0.65625 0
0.25 0.65625 0
0.21875 0.6875 0
0.25 0.6875 0
0.125 0.6875 0
0.15625 0.6875 0
0.125 0.71875 0
0.15625 0.71875 0
0.15625 0.6875 0
0.1875 0.6875 0
0.15625 0.71875 0
0.1875 0.71875 0
0.125 0.71875 0
0.15625 0.71875 0
0.125 0.75 0
0.15625 0.75 0
0.15625 0.71875 0
0.1875 0.71875 0
0.15625 0.75 0
0.1875 0.75 0
0.1875 0.6875 0
0.21875 0.6875 0
0.1875 0.71875 0
0.21875 0.71875 0
0.21875 0.6875 0
0.25 0.6875 0
0.21875 0.71875 0
0.25 0.71875 0
0.1875 0.71875 0
0.21875 0.71875 0
0.1875 0.75 0
0.21875 0.75 0
0.21875 0.71875 0
0.25 0.71875 0
0.21875 0.75 0
0.25 0.75 0
0.25 0.5 0
0.28125 0.5 0
0.25 0.53125 0
0.28125 0.53125 0
0.28125 0.5 0
0.3125 0.5 0
0.28125 0.53125 0
0.3125 0.53125 0
0.25 0.53125 0
0.28125 0.53125 0
0.25 0.5625 0
0.28125 0.5625 0
0.28125 0.53125 0
0.3125 0.53125 0
0.28125 0.5625 0
0.3125 0.5625 0
0.25 0.5625 0
0.28125 0.5625 0
0.25 0.59375 0
0.28125 0.59375 0
0.28125 0.5625 0
0.3125 0.5625 0
0.28125 0.59375 0
0.3125 0.59375 0
0.25 0.59375 0
0.28125 0.59375 0
0.25 0.625 0
0.28125 0.625 0
0.28125 0.59375 0
0.3125 0.59375 0
0.28125 0.625 0
0.3125 0.625 0
0.25 0.625 0
0.28125 0.625 0
0.25 0.65625 0
0.28125 0.65625 0
0.28125 0.625 0
0.3125 0.625 0
0.28125 0.65625 0
0.3125 0.65625 0
0.25 0.65625 0
0.28125 0.65625 0
0.25 0.6875 0
0.28125 0.6875 0
0.28125 0.65625 0
0.3125 0.65625 0
0.28125 0.6875 0
0.3125 0.6875 0
0.25 0.6875 0
0.28125 0.6875 0
0.25 0.71875 0
0.28125 0.71875 0
0.28125 0.6875 0
0.3125 0.6875 0
0.28125 0.71875 0
0.3125 0.71875 0
0.25 0.71875 0
0.28125 0.71875 0
0.25 0.75 0
0.28125 0.75 0
0.28125 0.71875 0
0.3125 0.71875 0
0.28125 0.75 0
0.3125 0.75 0
0.3125 0.6875 0
0.34375 0.6875 0
0.3125 0.71875 0
0.34375 0.71875 0
0.34375 0.6875 0
0.375 0.6875 0
0.34375 0.71875 0
0.375 0.71875 0
0.3125 0.71875 0
0.34375 0.71875 0
0.3125 0.75 0
0.34375 0.75 0
0.34375 0.71875 0
0.375 0.71875 0
0.34375 0.75 0
0.375 0.75 0
0.375 0.6875 0
0.40625 0.6875 0
0.375 0.71875 0
0.40625 0.71875 0
0.40625 0.6875 0
0.4375 0.6875 0
0.40625 0.71875 0
0.4375 0.71875 0
0.375 0.71875 0
0.40625 0.71875 0
0.375 0.75 0
0.40625 0.75 0
0.40625 0.71875 0
0.4375 0.71875 0
0.40625 0.75 0
0.4375 0.75 0
0.4375 0.6875 0
0.46875 0.6875 0
0.4375 0.71875 0
0.46875 0.71875 0
0.46875 0.6875 0
0.5 0.6875 0
0.46875 0.71875 0
0.5 0.71875 0
0.4375 0.71875 0
0.46875 0.71875 0
0.4375 0.75 0
0.46875 0.75 0
0.46875 0.71875 0
0.5 0.71875 0
0.46875 0.75 0
0.5 0.75 0
0.0625 0.75 0
0.09375 0.75 0
0.0625 0.78125 0
0.09375 0.78125 0
0.09375 0.75 0
0.125 0.75 0
0.09375 0.78125 0
0.125 0.78125 0
0.0625 0.78125 0
0.09375 0.78125 0
0.0625 0.8125 0
0.09375 0.8125 0
0.09375 0.78125 0
0.125 0.78125 0
0.09375 0.8125 0
0.125 0.8125 0
0.125 0.75 0
0.15625 0.75 0
0.125 0.78125 0
0.15625 0.78125 0
0.15625 0.75 0
0.1875 0.75 0
0.15625 0.78125 0
0.1875 0.78125 0
0.125 0.78125 0
0.15625 0.78125 0
0.125 0.8125 0
0.15625 0.8125 0
0.15625 0.78125 0
0.1875 0.78125 0
0.15625 0.8125 0
0.1875 0.8125 0
0.1875 0.75 0
0.21875 0.75 0
0.1875 0.78125 0
0.21875 0.78125 0
0.21875 0.75 0
0.25 0.75 0
0.21875 0.78125 0
0.25 0.78125 0
0.1875 0.78125 0
0.21875 0.78125 0
0.1875 0.8125 0
0.21875 0.8125 0
0.21875 0.78125 0
0.25 0.78125 0
0.21875 0.8125 0
0.25 0.8125 0
0.1875 0.8125 0
0.21875 0.8125 0
0.1875 0.84375 0
0.21875 0.84375 0
0.21875 0.8125 0
0.25 0.8125 0
0.21875 0.84375 0
0.25 0.84375 0
0.1875 0.84375 0
0.21875 0.84375 0
0.1875 0.875 0
0.21875 0.875 0
0.21875 0.84375 0
0.25 0.84375 0
0.21875 0.875 0
0.25 0.875 0
0.1875 0.875 0
0.21875 0.875 0
0.1875 0.90625 0
0.21875 0.90625 0
0.21875 0.875 0
0.25 0.875 0
0.21875 0.90625 0
0.25 0.90625 0
0.1875 0.90625 0
0.21875 0.90625 0
0.1875 0.9375 0
0.21875 0.9375 0
0.21875 0.90625 0
0.25 0.90625 0
0.21875 0.9375 0
0.25 0.9375 0
0.25 0.75 0
0.28125 0.75 0
0.25 0.78125 0
0.28125 0.78125 0
0.28125 0.75 0
0.3125 0.75 0
0.28125 0.78125 0
0.3125 0.78125 0
0.25 0.78125 0
0.28125 0.78125 0
0.25 0.8125 0
0.28125 0.8125 0
0.28125 0.78125 0
0.3125 0.78125 0
0.28125 0.8125 0
0.3125 0.8125 0
0.3125 0.75 0
0.34375 0.75 0
0.3125 0.78125 0
0.34375 0.78125 0
0.34375 0.75 0
0.375 0.75 0
0.34375 0.78125 0
0.375 0.78125 0
0.3125 0.78125 0
0.34375 0.78125 0
0.3125 0.8125 0
0.34375 0.8125 0
0.34375 0.78125 0
0.375 0.78125 0
0.34375 0.8125 0
0.375 0.8125 0
0.25 0.8125 0
0.28125 0.8125 0
0.25 0.84375 0
0.28125 0.84375 0
0.28125 0.8125 0
0.3125 0.8125 0
0.28125 0.84375 0
0.3125 0.84375 0
0.25 0.84375 0
0.28125 0.84375 0
0.25 0.875 0
0.28125 0.875 0
0.28125 0.84375 0
0.3125 0.84375 0
0.28125 0.875 0
0.3125 0.875 0
0.3125 0.8125 0
0.34375 0.8125 0
0.3125 0.84375 0
0.34375 0.84375 0
0.34375 0.8125 0
0.375 0.8125 0
0.34375 0.84375 0
0.375 0.84375 0
0.3125 0.84375 0
0.34375 0.84375 0
0.3125 0.875 0
0.34375 0.875 0
0.34375 0.84375 0
0.375 0.84375 0
0.34375 0.875 0
0.375 0.875 0
0.375 0.75 0
0.40625 0.75 0
0.375 0.78125 0
0.40625 0.78125 0
0.40625 0.75 0
0.4375 0.75 0
0.40625 0.78125 0
0.4375 0.78125 0
0.375 0.78125 0
0.40625 0.78125 0
0.375 0.8125 0
0.40625 0.8125 0
0.40625 0.78125 0
0.4375 0.78125 0
0.40625 0.8125 0
0.4375 0.8125 0
0.4375 0.75 0
0.46875 0.75 0
0.4375 0.78125 0
0.46875 0.78125 0
0.46875 0.75 0
0.5 0.75 0
0.46875 0.78125 0
0.5 0.78125 0
0.4375 0.78125 0
0.46875 0.78125 0
0.4375 0.8125 0
0.46875 0.8125 0
0.46875 0.78125 0
0.5 0.78125 0
0.46875 0.8125 0
0.5 0.8125 0
0.375 0.8125 0
0.40625 0.8125 0
0.375 0.84375 0
0.40625 0.84375 0
0.40625 0.8125 0
0.4375 0.8125 0
0.40625 0.84375 0
0.4375 0.84375 0
0.375 0.84375 0
0.40625 0.84375 0
0.375 0.875 0
0.40625 0.875 0
0.40625 0.84375 0
0.4375 0.84375 0
0.40625 0.875 0
0.4375 0.875 0
0.4375 0.8125 0
0.46875 0.8125 0
0.4375 0.84375 0
0.46875 0.84375 0
0.46875 0.8125 0
0.5 0.8125 0
0.46875 0.84375 0
0.5 0.84375 0
0.4375 0.84375 0
0.46875 0.84375 0
0.4375 0.875 0
0.46875 0.875 0
0.46875 0.84375 0
0.5 0.84375 0
0.46875 0.875 0
0.5 0.875 0
0.25 0.875 0
0.28125 0.875 0
0.25 0.90625 0
0.28125 0.90625 0
0.28125 0.875 0
0.3125 0.875 0
0.28125 0.90625 0
0.3125 0.90625 0
0.25 0.90625 0
0.28125 0.90625 0
0.25 0.9375 0
0.28125 0.9375 0
0.28125 0.90625 0
0.3125 0.90625 0
0.28125 0.9375 0
0.3125 0.9375 0
0.3125 0.875 0
0.34375 0.875 0
0.3125 0.90625 0
0.34375 0.90625 0
0.34375 0.875 0
0.375 0.875 0
0.34375 0.90625 0
0.375 0.90625 0
0.3125 0.90625 0
0.34375 0.90625 0
0.3125 0.9375 0
0.34375 0.9375 0
0.34375 0.90625 0
0.375 0.90625 0
0.34375 0.9375 0
0.375 0.9375 0
0.25 0.9375 0
0.28125 0.9375 0
0.25 0.96875 0
[...]
POINT_DATA 5680
SCALARS x_dis double 1
LOOKUP_TABLE default
0.00101009 0.000954923 0.00101534 0.000959741 0.000954923 0.000899293 0.000959741 0.000903574 0.00101534 0.000959741 0.00101404 0.000957593 0.000959741 0.000903574 0.000957593 0.000900468 0.000899293 0.000844495 0.000903574 0.000848091 0.000844495 0.000791464 0.000848091 0.000794185 0.000903574 0.000848091 0.000900468 0.000843767 0.000848091 0.000794185 0.000843767 0.000788264 0.00101404 0.000957593 0.00100662 0.000948977 0.000957593 0.000900468 0.000948977 0.000890539 0.00100662 0.000948977 0.000993844 0.00093472 0.000948977 0.000890539 0.00093472 0.000874714 0.000900468 0.000843767 0.000890539 0.000832196 0.000843767 0.000788264 0.000832196 0.000774547 0.000890539 0.000832196 0.000874714 0.00081445 0.000832196 0.000774547 0.00081445 0.000754332 0.000791464 0.00074091 0.000794185 0.000742526 0.00074091 0.000693422 0.000742526 0.000693646 0.000794185 0.000742526 0.000788264 0.000734508 0.000742526 0.000693646 0.000734508 0.000682884 0.000693422 0.000649523 0.000693646 0.000647986 0.000649523 0.00060973 0.000647986 0.000605931 0.000693646 0.000647986 0.000682884 0.000633631 0.000647986 0.000605931 0.000633631 0.000586835 0.000788264 0.000734508 0.000774547 0.000717975 0.000734508 0.000682884 0.000717975 0.000662682 0.000774547 0.000717975 0.000754332 0.000694574 0.000717975 0.000662682 0.000694574 0.000635211 0.000682884 0.000633631 0.000662682 0.00060868 0.000633631 0.000586835 0.00060868 0.000555755 0.000662682 0.00060868 0.000635211 0.000576077 0.00060868 0.000555755 0.000576077 0.00051677 0.000993844 0.00093472 0.000976677 0.000915895 0.00093472 0.000874714 0.000915895 0.000854169 0.000976677 0.000915895 0.000956233 0.000893705 0.000915895 0.000854169 0.000893705 0.000830208 0.000874714 0.00081445 0.000854169 0.00079186 0.00081445 0.000754332 0.00079186 0.000729182 0.000854169 0.00079186 0.000830208 0.000765871 0.00079186 0.000729182 0.000765871 0.000700737 0.000956233 0.000893705 0.000933697 0.00086938 0.000893705 0.000830208 0.00086938 0.000804157 0.000933697 0.00086938 0.000910106 0.000844222 0.00086938 0.000804157 0.000844222 0.000777344 0.000830208 0.000765871 0.000804157 0.000737922 0.000765871 0.000700737 0.000737922 0.000670572 0.000804157 0.000737922 0.000777344 0.000709355 0.000737922 0.000670572 0.000709355 0.000640095 0.000754332 0.000694574 0.000729182 0.000666203 0.000694574 0.000635211 0.000666203 0.000602841 0.000729182 0.000666203 0.000700737 0.000634767 0.000666203 0.000602841 0.000634767 0.000567817 0.000635211 0.000576077 0.000602841 0.000538839 0.000576077 0.00051677 0.000538839 0.000473754 0.000602841 0.000538839 0.000567817 0.000499632 0.000538839 0.000473754 0.000499632 0.000429849 0.000700737 0.000634767 0.000670572 0.000602007 0.000634767 0.000567817 0.000602007 0.000532074 0.000670572 0.000602007 0.000640095 0.000569419 0.000602007 0.000532074 0.000569419 0.000497166 0.000567817 0.000499632 0.000532074 0.000460571 0.000499632 0.000429849 0.000460571 0.000387278 0.000532074 0.000460571 0.000497166 0.000423212 0.000460571 0.000387278 0.000423212 0.000347482 0.00060973 0.000574609 0.000605931 0.000567822 0.000574609 0.000544859 0.000567822 0.00053395 0.000605931 0.000567822 0.000586835 0.000542365 0.000567822 0.00053395 0.000542365 0.000499751 0.000586835 0.000542365 0.000555755 0.000503375 0.000542365 0.000499751 0.000503375 0.000450557 0.000555755 0.000503375 0.00051677 0.000456605 0.000503375 0.000450557 0.000456605 0.000394532 0.00051677 0.000456605 0.000473754 0.000406949 0.000456605 0.000394532 0.000406949 0.000337693 0.000473754 0.000406949 0.000429849 0.000358038 0.000406949 0.000337693 0.000358038 0.000283847 0.000429849 0.000358038 0.000387278 0.000312023 0.000358038 0.000283847 0.000312023 0.000234711 0.000387278 0.000312023 0.000347482 0.000270004 0.000312023 0.000234711 0.000270004 0.00019097 0.000283847 0.000206964 0.000234711 0.000155494 0.000206964 0.000127473 0.000155494 7.49987e-05 0.000234711 0.000155494 0.00019097 0.000110836 0.000155494 7.49987e-05 0.000110836 3.04377e-05 0.000127473 4.64122e-05 7.49987e-05 -5.51904e-06 4.64122e-05 -3.40493e-05 -5.51904e-06 -8.40384e-05 7.49987e-05 -5.51904e-06 3.04377e-05 -4.89215e-05 -5.51904e-06 -8.40384e-05 -4.89215e-05 -0.000125482 -3.40493e-05 -0.000110476 -8.40384e-05 -0.000157932 -0.000110476 -0.000179057 -0.000157932 -0.000224245 -8.40384e-05 -0.000157932 -0.000125482 -0.000197137 -0.000157932 -0.000224245 -0.000197137 -0.000261753 0.000777344 0.000709355 0.000750698 0.000681325 0.000709355 0.000640095 0.000681325 0.000610551 0.000750698 0.000681325 0.000725678 0.00065506 0.000681325 0.000610551 0.00065506 0.000583074 0.000640095 0.000569419 0.000610551 0.000538236 0.000569419 0.000497166 0.000538236 0.000464296 0.000610551 0.000538236 0.000583074 0.000509559 0.000538236 0.000464296 0.000509559 0.000434349 0.000497166 0.000423212 0.000464296 0.000388653 0.000423212 0.000347482 0.000388653 0.000311367 0.000464296 0.000388653 0.000434349 0.000357632 0.000388653 0.000311367 0.000357632 0.000279487 0.000434349 0.000357632 0.000407862 0.000330659 0.000357632 0.000279487 0.000330659 0.000252159 0.000407862 0.000330659 0.000385565 0.000308095 0.000330659 0.000252159 0.000308095 0.000229573 0.000385565 0.000308095 0.000367533 0.000290109 0.000308095 0.000229573 0.000290109 0.000211596 0.000367533 0.000290109 0.00035416 0.000275752 0.000290109 0.000211596 0.000275752 0.000198296 0.000347482 0.000270004 0.000311367 0.000232637 0.000270004 0.00019097 0.000232637 0.000152847 0.000311367 0.000232637 0.000279487 0.000200188 0.000232637 0.000152847 0.000200188 0.000120258 0.00019097 0.000110836 0.000152847 7.26319e-05 0.000110836 3.04377e-05 7.26319e-05 -7.08442e-06 0.000152847 7.26319e-05 0.000120258 4.04319e-05 7.26319e-05 -7.08442e-06 4.04319e-05 -3.83412e-05 0.000279487 0.000200188 0.000252159 0.000172731 0.000200188 0.000120258 0.000172731 9.29978e-05 0.000252159 0.000172731 0.000229573 0.000150186 0.000172731 9.29978e-05 0.000150186 7.08336e-05 0.000120258 4.04319e-05 9.29978e-05 1.37977e-05 4.04319e-05 -3.83412e-05 1.37977e-05 -6.3956e-05 9.29978e-05 1.37977e-05 7.08336e-05 -7.65433e-06 1.37977e-05 -6.3956e-05 -7.65433e-06 -8.43841e-05 3.04377e-05 -4.89215e-05 -7.08442e-06 -8.50631e-05 -4.89215e-05 -0.000125482 -8.50631e-05 -0.000159783 -7.08442e-06 -8.50631e-05 -3.83412e-05 -0.00011492 -8.50631e-05 -0.000159783 -0.00011492 -0.000187998 -0.000125482 -0.000197137 -0.000159783 -0.000229564 -0.000197137 -0.000261753 -0.000229564 -0.000292767 -0.000159783 -0.000229564 -0.000187998 -0.000256201 -0.000229564 -0.000292767 -0.000256201 -0.00031823 -3.83412e-05 -0.00011492 -6.3956e-05 -0.000139226 -0.00011492 -0.000187998 -0.000139226 -0.000210888 -6.3956e-05 -0.000139226 -8.43841e-05 -0.000158506 -0.000139226 -0.000210888 -0.000158506 -0.000228997 -0.000187998 -0.000256201 -0.000210888 -0.000277781 -0.000256201 -0.00031823 -0.000277781 -0.000338831 -0.000210888 -0.000277781 -0.000228997 -0.000294832 -0.000277781 -0.000338831 -0.000294832 -0.000355083 0.000229573 0.000150186 0.000211596 0.000132437 0.000150186 7.08336e-05 0.000132437 5.34216e-05 0.000211596 0.000132437 0.000198296 0.000118283 0.000132437 5.34216e-05 0.000118283 4.13915e-05 7.08336e-05 -7.65433e-06 5.34216e-05 -2.40783e-05 -7.65433e-06 -8.43841e-05 -2.40783e-05 -9.99112e-05 5.34216e-05 -2.40783e-05 4.13915e-05 -3.54067e-05 -2.40783e-05 -9.99112e-05 -3.54067e-05 -0.000110695 0.000198296 0.000118283 0.000186571 0.00011301 0.000118283 4.13915e-05 0.00011301 3.56403e-05 0.000186571 0.00011301 0.000202497 0.000116752 0.00011301 3.56403e-05 0.000116752 3.46115e-05 4.13915e-05 -3.54067e-05 3.56403e-05 -4.16565e-05 -3.54067e-05 -0.000110695 -4.16565e-05 -0.000116927 3.56403e-05 -4.16565e-05 3.46115e-05 -4.3497e-05 -4.16565e-05 -0.000116927 -4.3497e-05 -0.000118937 -8.43841e-05 -0.000158506 -9.99112e-05 -0.000173119 -0.000158506 -0.000228997 -0.000173119 -0.000242708 -9.99112e-05 -0.000173119 -0.000110695 -0.000183315 -0.000173119 -0.000242708 -0.000183315 -0.000252293 -0.000228997 -0.000294832 -0.000242708 -0.000307732 -0.000294832 -0.000355083 -0.000307732 -0.000367362 -0.000242708 -0.000307732 -0.000252293 -0.000316754 -0.000307732 -0.000367362 -0.000316754 -0.00037594 -0.000110695 -0.000183315 -0.000116927 -0.000189304 -0.000183315 -0.000252293 -0.000189304 -0.000257952 -0.000116927 -0.000189304 -0.000118937 -0.000191271 -0.000189304 -0.000257952 -0.000191271 -0.000259821 -0.000252293 -0.000316754 -0.000257952 -0.000322088 -0.000316754 -0.00037594 -0.000322088 -0.000381011 -0.000257952 -0.000322088 -0.000259821 -0.000323853 -0.000322088 -0.000381011 -0.000323853 -0.000382688 0.000558861 0.000473224 0.000273369 0.000252909 0.000473224 0.000393855 0.000252909 0.000218598 0.000273369 0.000252909 7.24055e-05 6.85516e-05 0.000252909 0.000218598 6.85516e-05 5.73342e-05 7.24055e-05 6.85516e-05 -5.73209e-05 -6.88981e-05 6.85516e-05 5.73342e-05 -6.88981e-05 -7.59392e-05 -5.73209e-05 -6.88981e-05 -0.000150791 -0.000170705 -6.88981e-05 -7.59392e-05 -0.000170705 -0.000181433 0.000393855 0.000322202 0.000218598 0.000178985 0.000322202 0.000258077 0.000178985 0.000138554 0.000218598 0.000178985 5.73342e-05 3.93106e-05 0.000178985 0.000138554 3.93106e-05 1.72385e-05 0.000258077 0.000201316 0.000138554 9.97872e-05 0.000201316 0.000151864 9.97872e-05 6.41134e-05 0.000138554 9.97872e-05 1.72385e-05 -6.47257e-06 9.97872e-05 6.41134e-05 -6.47257e-06 -3.00273e-05 5.73342e-05 3.93106e-05 -7.59392e-05 -8.46122e-05 3.93106e-05 1.72385e-05 -8.46122e-05 -9.59822e-05 -7.59392e-05 -8.46122e-05 -0.000181433 -0.000188823 -8.46122e-05 -9.59822e-05 -0.000188823 -0.000195948 1.72385e-05 -6.47257e-06 -9.59822e-05 -0.000109406 -6.47257e-06 -3.00273e-05 -0.000109406 -0.00012383 -9.59822e-05 -0.000109406 -0.000195948 -0.000203817 -0.000109406 -0.00012383 -0.000203817 -0.000212436 -5.72925e-05 -0.000114365 -0.000124594 -0.000181319 -0.000114365 -0.000150791 -0.000181319 -0.000222222 -0.000124594 -0.000181319 -0.000179057 -0.000235704 -0.000181319 -0.000222222 -0.000235704 -0.000279231 -0.000150791 -0.000170705 -0.000222222 -0.000248654 -0.000170705 -0.000181433 -0.000248654 -0.000264571 -0.000222222 -0.000248654 -0.000279231 -0.000310161 -0.000248654 -0.000264571 -0.000310161 -0.000330793 -0.000179057 -0.000235704 -0.000224245 -0.000280568 -0.000235704 -0.000279231 -0.000280568 -0.000325616 -0.000224245 -0.000280568 -0.000261753 -0.000317562 -0.000280568 -0.000325616 -0.000317562 -0.000363609 -0.000279231 -0.000310161 -0.000325616 -0.00035968 -0.000310161 -0.000330793 -0.00035968 -0.000384089 -0.000325616 -0.00035968 -0.000363609 -0.00039988 -0.00035968 -0.000384089 -0.00039988 -0.000427214 -0.000181433 -0.000188823 -0.000264571 -0.000274385 -0.000188823 -0.000195948 -0.000274385 -0.000281319 -0.000264571 -0.000274385 -0.000330793 -0.000344114 -0.000274385 -0.000281319 -0.000344114 -0.000352862 -0.000195948 -0.000203817 -0.000281319 -0.000287219 -0.000203817 -0.000212436 -0.000287219 -0.000292903 -0.000281319 -0.000287219 -0.000352862 -0.000359029 -0.000287219 -0.000292903 -0.000359029 -0.000363854 -0.000330793 -0.000344114 -0.000384089 -0.00040087 -0.000344114 -0.000352862 -0.00040087 -0.000412146 -0.000384089 -0.00040087 -0.000427214 -0.000446998 -0.00040087 -0.000412146 -0.000446998 -0.000460842 -0.000352862 -0.000359029 -0.000412146 -0.000419731 -0.000359029 -0.000363854 -0.000419731 -0.000424981 -0.000412146 -0.000419731 -0.000460842 -0.000470282 -0.000419731 -0.000424981 -0.000470282 -0.000476622 0.000151864 0.000109712 6.41134e-05 3.24043e-05 0.000109712 7.48406e-05 3.24043e-05 5.19342e-06 6.41134e-05 3.24043e-05 -3.00273e-05 -5.21678e-05 3.24043e-05 5.19342e-06 -5.21678e-05 -7.2027e-05 7.48406e-05 4.71699e-05 5.19342e-06 -1.72283e-05 4.71699e-05 2.64955e-05 -1.72283e-05 -3.47787e-05 5.19342e-06 -1.72283e-05 -7.2027e-05 -8.90223e-05 -1.72283e-05 -3.47787e-05 -8.90223e-05 -0.000102787 -3.00273e-05 -5.21678e-05 -0.00012383 -0.000138246 -5.21678e-05 -7.2027e-05 -0.000138246 -0.000151805 -0.00012383 -0.000138246 -0.000212436 -0.000221391 -0.000138246 -0.000151805 -0.000221391 -0.000230135 -7.2027e-05 -8.90223e-05 -0.000151805 -0.00016384 -8.90223e-05 -0.000102787 -0.00016384 -0.000173838 -0.000151805 -0.00016384 -0.000230135 -0.000238122 -0.00016384 -0.000173838 -0.000238122 -0.000244856 2.64955e-05 1.23905e-05 -3.47787e-05 -4.75801e-05 1.23905e-05 4.0609e-06 -4.75801e-05 -5.59595e-05 -3.47787e-05 -4.75801e-05 -0.000102787 -0.000113124 -4.75801e-05 -5.59595e-05 -0.000113124 -0.000119981 4.0609e-06 1.87592e-07 -5.59595e-05 -6.04321e-05 1.87592e-07 -9.83762e-07 -6.04321e-05 -6.19373e-05 -5.59595e-05 -6.04321e-05 -0.000119981 -0.000123521 -6.04321e-05 -6.19373e-05 -0.000123521 -0.000124493 -0.000102787 -0.000113124 -0.000173838 -0.000181416 -0.000113124 -0.000119981 -0.000181416 -0.000186324 -0.000173838 -0.000181416 -0.000244856 -0.00024991 -0.000181416 -0.000186324 -0.00024991 -0.000252949 -0.000119981 -0.000123521 -0.000186324 -0.000188539 -0.000123521 -0.000124493 -0.000188539 -0.000188461 -0.000186324 -0.000188539 -0.000252949 -0.00025379 -0.000188539 -0.000188461 -0.00025379 -0.000252445 -0.000212436 -0.000221391 -0.000292903 -0.000298564 -0.000221391 -0.000230135 -0.000298564 -0.00030406 -0.000292903 -0.000298564 -0.000363854 -0.000367972 -0.000298564 -0.00030406 -0.000367972 -0.000371603 -0.000230135 -0.000238122 -0.00030406 -0.000309091 -0.000238122 -0.000244856 -0.000309091 -0.000313293 -0.00030406 -0.000309091 -0.000371603 -0.000374719 -0.000309091 -0.000313293 -0.000374719 -0.000377144 -0.000363854 -0.000367972 -0.000424981 -0.000428779 -0.000367972 -0.000371603 -0.000428779 -0.000431609 -0.000424981 -0.000428779 -0.000476622 -0.000480839 -0.000428779 -0.000431609 -0.000480839 -0.00048358 -0.000371603 -0.000374719 -0.000431609 -0.000433671 -0.000374719 -0.000377144 -0.000433671 -0.000434975 -0.000431609 -0.000433671 -0.00048358 -0.000485214 -0.000433671 -0.000434975 -0.000485214 -0.000485898 -0.000244856 -0.00024991 -0.000313293 -0.000316292 -0.00024991 -0.000252949 -0.000316292 -0.000317735 -0.000313293 -0.000316292 -0.000377144 -0.000378608 -0.000316292 -0.000317735 -0.000378608 -0.000378779 -0.000252949 -0.00025379 -0.000317735 -0.000317303 -0.00025379 -0.000252445 -0.000317303 -0.00031467 -0.000317735 -0.000317303 -0.000378779 -0.00037725 -0.000317303 -0.00031467 -0.00037725 -0.000373455 -0.000377144 -0.000378608 -0.000434975 -0.000435374 -0.000378608 -0.000378779 -0.000435374 -0.000434585 -0.000434975 -0.000435374 -0.000485898 -0.000485609 -0.000435374 -0.000434585 -0.000485609 -0.00048413 -0.000378779 -0.00037725 -0.000434585 -0.000432167 -0.00037725 -0.000373455 -0.000432167 -0.000427425 -0.000434585 -0.000432167 -0.00048413 -0.000481035 -0.000432167 -0.000427425 -0.000481035 -0.000475602 -0.000261753 -0.000317562 -0.000292767 -0.000348072 -0.000317562 -0.000363609 -0.000348072 -0.000394698 -0.000292767 -0.000348072 -0.00031823 -0.000373038 -0.000348072 -0.000394698 -0.000373038 -0.00041998 -0.000363609 -0.00039988 -0.000394698 -0.000432532 -0.00039988 -0.000427214 -0.000432532 -0.000462081 -0.000394698 -0.000432532 -0.00041998 -0.00045889 -0.000432532 -0.000462081 -0.00045889 -0.000490079 -0.00031823 -0.000373038 -0.000338831 -0.000393173 -0.000373038 -0.00041998 -0.000393173 -0.000440251 -0.000338831 -0.000393173 -0.000355083 -0.000409005 -0.000393173 -0.000440251 -0.000409005 -0.000456107 -0.00041998 -0.00045889 -0.000440251 -0.00047988 -0.00045889 -0.000490079 -0.00047988 -0.000512245 -0.000440251 -0.00047988 -0.000456107 -0.000496194 -0.00047988 -0.000512245 -0.000496194 -0.000529375 -0.000427214 -0.000446998 -0.000462081 -0.000484318 -0.000446998 -0.000460842 -0.000484318 -0.00050046 -0.000462081 -0.000484318 -0.000490079 -0.000514235 -0.000484318 -0.00050046 -0.000514235 -0.000532292 -0.000460842 -0.000470282 -0.00050046 -0.000511777 -0.000470282 -0.000476622 -0.000511777 -0.000519448 -0.00050046 -0.000511777 -0.000532292 -0.000545291 -0.000511777 -0.000519448 -0.000545291 -0.000554274 -0.000490079 -0.000514235 -0.000512245 -0.000537849 -0.000514235 -0.000532292 -0.000537849 -0.000557416 -0.000512245 -0.000537849 -0.000529375 -0.000556027 -0.000537849 -0.000557416 -0.000556027 -0.000576728 -0.000532292 -0.000545291 -0.000557416 -0.000571809 -0.000545291 -0.000554274 -0.000571809 -0.000581947 -0.000557416 -0.000571809 -0.000576728 -0.000592209 -0.000571809 -0.000581947 -0.000592209 -0.000603283 -0.000355083 -0.000409005 -0.000367362 -0.000420931 -0.000409005 -0.000456107 -0.000420931 -0.000467996 -0.000367362 -0.000420931 -0.00037594 -0.000429244 -0.000420931 -0.000467996 -0.000429244 -0.000476252 -0.000456107 -0.000496194 -0.000467996 -0.000508359 -0.000496194 -0.000529375 -0.000508359 -0.00054208 -0.000467996 -0.000508359 -0.000476252 -0.000516768 -0.000508359 -0.00054208 -0.000516768 -0.000550825 -0.00037594 -0.000429244 -0.000381011 -0.00043415 -0.000429244 -0.000476252 -0.00043415 -0.000481111 -0.000381011 -0.00043415 -0.000382688 -0.000435771 -0.00043415 -0.000481111 -0.000435771 -0.000482715 -0.000476252 -0.000516768 -0.000481111 -0.000521701 -0.000516768 -0.000550825 -0.000521701 -0.000555938 -0.000481111 -0.000521701 -0.000482715 -0.000523326 -0.000521701 -0.000555938 -0.000523326 -0.00055762 -0.000529375 -0.000556027 -0.00054208 -0.000569456 -0.000556027 -0.000576728 -0.000569456 -0.000590965 -0.00054208 -0.000569456 -0.000550825 -0.000578666 -0.000569456 -0.000590965 -0.000578666 -0.000600708 -0.000576728 -0.000592209 -0.000590965 -0.000607241 -0.000592209 -0.000603283 -0.000607241 -0.00061902 -0.000590965 -0.000607241 -0.000600708 -0.00061752 -0.000607241 -0.00061902 -0.00061752 -0.000629782 -0.000550825 -0.000578666 -0.000555938 -0.000584039 -0.000578666 -0.000600708 -0.000584039 -0.000606381 -0.000555938 -0.000584039 -0.00055762 -0.000585804 -0.000584039 -0.000606381 -0.000585804 -0.000608243 -0.000600708 -0.00061752 -0.000606381 -0.000623499 -0.00061752 -0.000629782 -0.000623499 -0.000636041 -0.000606381 -0.000623499 -0.000608243 -0.000625461 -0.000623499 -0.000636041 -0.000625461 -0.000638093 -0.000476622 -0.000480839 -0.000519448 -0.00052445 -0.000480839 -0.00048358 -0.00052445 -0.000527509 -0.000519448 -0.00052445 -0.000554274 -0.00056017 -0.00052445 -0.000527509 -0.00056017 -0.00056373 -0.00048358 -0.000485214 -0.000527509 -0.00052911 -0.000485214 -0.000485898 -0.00052911 -0.000529522 -0.000527509 -0.00052911 -0.00056373 -0.000565507 -0.00052911 -0.000529522 -0.000565507 -0.000565853 -0.000554274 -0.00056017 -0.000581947 -0.000588693 -0.00056017 -0.00056373 -0.000588693 -0.000592788 -0.000581947 -0.000588693 -0.000603283 -0.00061075 -0.000588693 -0.000592788 -0.00061075 -0.000615329 -0.00056373 -0.000565507 -0.000592788 -0.000594821 -0.000565507 -0.000565853 -0.000594821 -0.000595202 -0.000592788 -0.000594821 -0.000615329 -0.000617618 -0.000594821 -0.000595202 -0.000617618 -0.000618069 -0.000485898 -0.000485609 -0.000529522 -0.000528818 -0.000485609 -0.00048413 -0.000528818 -0.000526863 -0.000529522 -0.000528818 -0.000565853 -0.000564917 -0.000528818 -0.000526863 -0.000564917 -0.000562647 -0.00048413 -0.000481035 -0.000526863 -0.000523286 -0.000481035 -0.000475602 -0.000523286 -0.000517421 -0.000526863 -0.000523286 -0.000562647 -0.000558755 -0.000523286 -0.000517421 -0.000558755 -0.000552685 -0.000565853 -0.000564917 -0.000595202 -0.000594145 -0.000564917 -0.000562647 -0.000594145 -0.000591673 -0.000595202 -0.000594145 -0.000618069 -0.00061695 -0.000594145 -0.000591673 -0.00061695 -0.000614354 -0.000562647 -0.000558755 -0.000591673 -0.000587596 -0.000558755 -0.000552685 -0.000587596 -0.000581502 -0.000591673 -0.000587596 -0.000614354 -0.000610188 -0.000587596 -0.000581502 -0.000610188 -0.000604187 -0.000603283 -0.00061075 -0.00061902 -0.000627046 -0.00061075 -0.000615329 -0.000627046 -0.000632012 -0.00061902 -0.000627046 -0.000629782 -0.000638198 -0.000627046 -0.000632012 -0.000638198 -0.000643441 -0.000615329 -0.000617618 -0.000632012 -0.000634519 -0.000617618 -0.000618069 -0.000634519 -0.000635041 -0.000632012 -0