# vtk DataFile Version 3.0
#This file was generated by the deal.II library on 2022/11/17 at 0:54:12
ASCII
DATASET UNSTRUCTURED_GRID

POINTS 10192 double
0.4375 0.75 0
0.46875 0.75 0
0.4375 0.78125 0
0.46875 0.78125 0
0.46875 0.75 0
0.5 0.75 0
0.46875 0.78125 0
0.5 0.78125 0
0.4375 0.78125 0
0.46875 0.78125 0
0.4375 0.8125 0
0.46875 0.8125 0
0.46875 0.78125 0
0.5 0.78125 0
0.46875 0.8125 0
0.5 0.8125 0
0.4375 0.8125 0
0.46875 0.8125 0
0.4375 0.84375 0
0.46875 0.84375 0
0.46875 0.8125 0
0.5 0.8125 0
0.46875 0.84375 0
0.5 0.84375 0
0.4375 0.84375 0
0.46875 0.84375 0
0.4375 0.875 0
0.46875 0.875 0
0.46875 0.84375 0
0.5 0.84375 0
0.46875 0.875 0
0.5 0.875 0
0.375 0.875 0
0.40625 0.875 0
0.375 0.90625 0
0.40625 0.90625 0
0.40625 0.875 0
0.4375 0.875 0
0.40625 0.90625 0
0.4375 0.90625 0
0.375 0.90625 0
0.40625 0.90625 0
0.375 0.9375 0
0.40625 0.9375 0
0.40625 0.90625 0
0.4375 0.90625 0
0.40625 0.9375 0
0.4375 0.9375 0
0.4375 0.875 0
0.46875 0.875 0
0.4375 0.90625 0
0.46875 0.90625 0
0.46875 0.875 0
0.5 0.875 0
0.46875 0.90625 0
0.5 0.90625 0
0.4375 0.90625 0
0.46875 0.90625 0
0.4375 0.9375 0
0.46875 0.9375 0
0.46875 0.90625 0
0.5 0.90625 0
0.46875 0.9375 0
0.5 0.9375 0
0.625 0.5 0
0.65625 0.5 0
0.625 0.53125 0
0.65625 0.53125 0
0.65625 0.5 0
0.6875 0.5 0
0.65625 0.53125 0
0.6875 0.53125 0
0.625 0.53125 0
0.65625 0.53125 0
0.625 0.5625 0
0.65625 0.5625 0
0.65625 0.53125 0
0.6875 0.53125 0
0.65625 0.5625 0
0.6875 0.5625 0
0.6875 0.5 0
0.71875 0.5 0
0.6875 0.53125 0
0.71875 0.53125 0
0.71875 0.5 0
0.75 0.5 0
0.71875 0.53125 0
0.75 0.53125 0
0.6875 0.53125 0
0.71875 0.53125 0
0.6875 0.5625 0
0.71875 0.5625 0
0.71875 0.53125 0
0.75 0.53125 0
0.71875 0.5625 0
0.75 0.5625 0
0.625 0.5625 0
0.65625 0.5625 0
0.625 0.59375 0
0.65625 0.59375 0
0.65625 0.5625 0
0.6875 0.5625 0
0.65625 0.59375 0
0.6875 0.59375 0
0.625 0.59375 0
0.65625 0.59375 0
0.625 0.625 0
0.65625 0.625 0
0.65625 0.59375 0
0.6875 0.59375 0
0.65625 0.625 0
0.6875 0.625 0
0.6875 0.5625 0
0.71875 0.5625 0
0.6875 0.59375 0
0.71875 0.59375 0
0.71875 0.5625 0
0.75 0.5625 0
0.71875 0.59375 0
0.75 0.59375 0
0.6875 0.59375 0
0.71875 0.59375 0
0.6875 0.625 0
0.71875 0.625 0
0.71875 0.59375 0
0.75 0.59375 0
0.71875 0.625 0
0.75 0.625 0
0.5625 0.625 0
0.59375 0.625 0
0.5625 0.65625 0
0.59375 0.65625 0
0.59375 0.625 0
0.625 0.625 0
0.59375 0.65625 0
0.625 0.65625 0
0.5625 0.65625 0
0.59375 0.65625 0
0.5625 0.6875 0
0.59375 0.6875 0
0.59375 0.65625 0
0.625 0.65625 0
0.59375 0.6875 0
0.625 0.6875 0
0.5 0.6875 0
0.53125 0.6875 0
0.5 0.71875 0
0.53125 0.71875 0
0.53125 0.6875 0
0.5625 0.6875 0
0.53125 0.71875 0
0.5625 0.71875 0
0.5 0.71875 0
0.53125 0.71875 0
0.5 0.75 0
0.53125 0.75 0
0.53125 0.71875 0
0.5625 0.71875 0
0.53125 0.75 0
0.5625 0.75 0
0.5625 0.6875 0
0.59375 0.6875 0
0.5625 0.71875 0
0.59375 0.71875 0
0.59375 0.6875 0
0.625 0.6875 0
0.59375 0.71875 0
0.625 0.71875 0
0.5625 0.71875 0
0.59375 0.71875 0
0.5625 0.75 0
0.59375 0.75 0
0.59375 0.71875 0
0.625 0.71875 0
0.59375 0.75 0
0.625 0.75 0
0.625 0.625 0
0.65625 0.625 0
0.625 0.65625 0
0.65625 0.65625 0
0.65625 0.625 0
0.6875 0.625 0
0.65625 0.65625 0
0.6875 0.65625 0
0.625 0.65625 0
0.65625 0.65625 0
0.625 0.6875 0
0.65625 0.6875 0
0.65625 0.65625 0
0.6875 0.65625 0
0.65625 0.6875 0
0.6875 0.6875 0
0.6875 0.625 0
0.71875 0.625 0
0.6875 0.65625 0
0.71875 0.65625 0
0.71875 0.625 0
0.75 0.625 0
0.71875 0.65625 0
0.75 0.65625 0
0.6875 0.65625 0
0.71875 0.65625 0
0.6875 0.6875 0
0.71875 0.6875 0
0.71875 0.65625 0
0.75 0.65625 0
0.71875 0.6875 0
0.75 0.6875 0
0.625 0.6875 0
0.65625 0.6875 0
0.625 0.71875 0
0.65625 0.71875 0
0.65625 0.6875 0
0.6875 0.6875 0
0.65625 0.71875 0
0.6875 0.71875 0
0.625 0.71875 0
0.65625 0.71875 0
0.625 0.75 0
0.65625 0.75 0
0.65625 0.71875 0
0.6875 0.71875 0
0.65625 0.75 0
0.6875 0.75 0
0.6875 0.6875 0
0.71875 0.6875 0
0.6875 0.71875 0
0.71875 0.71875 0
0.71875 0.6875 0
0.75 0.6875 0
0.71875 0.71875 0
0.75 0.71875 0
0.6875 0.71875 0
0.71875 0.71875 0
0.6875 0.75 0
0.71875 0.75 0
0.71875 0.71875 0
0.75 0.71875 0
0.71875 0.75 0
0.75 0.75 0
0.75 0.5 0
0.78125 0.5 0
0.75 0.53125 0
0.78125 0.53125 0
0.78125 0.5 0
0.8125 0.5 0
0.78125 0.53125 0
0.8125 0.53125 0
0.75 0.53125 0
0.78125 0.53125 0
0.75 0.5625 0
0.78125 0.5625 0
0.78125 0.53125 0
0.8125 0.53125 0
0.78125 0.5625 0
0.8125 0.5625 0
0.8125 0.5 0
0.84375 0.5 0
0.8125 0.53125 0
0.84375 0.53125 0
0.84375 0.5 0
0.875 0.5 0
0.84375 0.53125 0
0.875 0.53125 0
0.8125 0.53125 0
0.84375 0.53125 0
0.8125 0.5625 0
0.84375 0.5625 0
0.84375 0.53125 0
0.875 0.53125 0
0.84375 0.5625 0
0.875 0.5625 0
0.75 0.5625 0
0.78125 0.5625 0
0.75 0.59375 0
0.78125 0.59375 0
0.78125 0.5625 0
0.8125 0.5625 0
0.78125 0.59375 0
0.8125 0.59375 0
0.75 0.59375 0
0.78125 0.59375 0
0.75 0.625 0
0.78125 0.625 0
0.78125 0.59375 0
0.8125 0.59375 0
0.78125 0.625 0
0.8125 0.625 0
0.8125 0.5625 0
0.84375 0.5625 0
0.8125 0.59375 0
0.84375 0.59375 0
0.84375 0.5625 0
0.875 0.5625 0
0.84375 0.59375 0
0.875 0.59375 0
0.8125 0.59375 0
0.84375 0.59375 0
0.8125 0.625 0
0.84375 0.625 0
0.84375 0.59375 0
0.875 0.59375 0
0.84375 0.625 0
0.875 0.625 0
0.875 0.5 0
0.90625 0.5 0
0.875 0.53125 0
0.90625 0.53125 0
0.90625 0.5 0
0.9375 0.5 0
0.90625 0.53125 0
0.9375 0.53125 0
0.875 0.53125 0
0.90625 0.53125 0
0.875 0.5625 0
0.90625 0.5625 0
0.90625 0.53125 0
0.9375 0.53125 0
0.90625 0.5625 0
0.9375 0.5625 0
0.9375 0.5 0
0.96875 0.5 0
0.9375 0.53125 0
0.96875 0.53125 0
0.96875 0.5 0
1 0.5 0
0.96875 0.53125 0
1 0.53125 0
0.9375 0.53125 0
0.96875 0.53125 0
0.9375 0.5625 0
0.96875 0.5625 0
0.96875 0.53125 0
1 0.53125 0
0.96875 0.5625 0
1 0.5625 0
0.875 0.5625 0
0.90625 0.5625 0
0.875 0.59375 0
0.90625 0.59375 0
0.90625 0.5625 0
0.9375 0.5625 0
0.90625 0.59375 0
0.9375 0.59375 0
0.875 0.59375 0
0.90625 0.59375 0
0.875 0.625 0
0.90625 0.625 0
0.90625 0.59375 0
0.9375 0.59375 0
0.90625 0.625 0
0.9375 0.625 0
0.9375 0.5625 0
0.96875 0.5625 0
0.9375 0.59375 0
0.96875 0.59375 0
0.96875 0.5625 0
1 0.5625 0
0.96875 0.59375 0
1 0.59375 0
0.9375 0.59375 0
0.96875 0.59375 0
0.9375 0.625 0
0.96875 0.625 0
0.96875 0.59375 0
1 0.59375 0
0.96875 0.625 0
1 0.625 0
0.75 0.625 0
0.78125 0.625 0
0.75 0.65625 0
0.78125 0.65625 0
0.78125 0.625 0
0.8125 0.625 0
0.78125 0.65625 0
0.8125 0.65625 0
0.75 0.65625 0
0.78125 0.65625 0
0.75 0.6875 0
0.78125 0.6875 0
0.78125 0.65625 0
0.8125 0.65625 0
0.78125 0.6875 0
0.8125 0.6875 0
0.8125 0.625 0
0.84375 0.625 0
0.8125 0.65625 0
0.84375 0.65625 0
0.84375 0.625 0
0.875 0.625 0
0.84375 0.65625 0
0.875 0.65625 0
0.8125 0.65625 0
0.84375 0.65625 0
0.8125 0.6875 0
0.84375 0.6875 0
0.84375 0.65625 0
0.875 0.65625 0
0.84375 0.6875 0
0.875 0.6875 0
0.75 0.6875 0
0.78125 0.6875 0
0.75 0.71875 0
0.78125 0.71875 0
0.78125 0.6875 0
0.8125 0.6875 0
0.78125 0.71875 0
0.8125 0.71875 0
0.75 0.71875 0
0.78125 0.71875 0
0.75 0.75 0
0.78125 0.75 0
0.78125 0.71875 0
0.8125 0.71875 0
0.78125 0.75 0
0.8125 0.75 0
0.8125 0.6875 0
0.84375 0.6875 0
0.8125 0.71875 0
0.84375 0.71875 0
0.84375 0.6875 0
0.875 0.6875 0
0.84375 0.71875 0
0.875 0.71875 0
0.8125 0.71875 0
0.84375 0.71875 0
0.8125 0.75 0
0.84375 0.75 0
0.84375 0.71875 0
0.875 0.71875 0
0.84375 0.75 0
0.875 0.75 0
0.875 0.625 0
0.90625 0.625 0
0.875 0.65625 0
0.90625 0.65625 0
0.90625 0.625 0
0.9375 0.625 0
0.90625 0.65625 0
0.9375 0.65625 0
0.875 0.65625 0
0.90625 0.65625 0
0.875 0.6875 0
0.90625 0.6875 0
0.90625 0.65625 0
0.9375 0.65625 0
0.90625 0.6875 0
0.9375 0.6875 0
0.9375 0.625 0
0.96875 0.625 0
0.9375 0.65625 0
0.96875 0.65625 0
0.96875 0.625 0
1 0.625 0
0.96875 0.65625 0
1 0.65625 0
0.9375 0.65625 0
0.96875 0.65625 0
0.9375 0.6875 0
0.96875 0.6875 0
0.96875 0.65625 0
1 0.65625 0
0.96875 0.6875 0
1 0.6875 0
0.875 0.6875 0
0.90625 0.6875 0
0.875 0.71875 0
0.90625 0.71875 0
0.90625 0.6875 0
0.9375 0.6875 0
0.90625 0.71875 0
0.9375 0.71875 0
0.875 0.71875 0
0.90625 0.71875 0
0.875 0.75 0
0.90625 0.75 0
0.90625 0.71875 0
0.9375 0.71875 0
0.90625 0.75 0
0.9375 0.75 0
0.9375 0.6875 0
0.96875 0.6875 0
0.9375 0.71875 0
0.96875 0.71875 0
0.96875 0.6875 0
1 0.6875 0
0.96875 0.71875 0
1 0.71875 0
0.9375 0.71875 0
0.96875 0.71875 0
0.9375 0.75 0
0.96875 0.75 0
0.96875 0.71875 0
1 0.71875 0
0.96875 0.75 0
1 0.75 0
0.5 0.75 0
0.53125 0.75 0
0.5 0.78125 0
0.53125 0.78125 0
0.53125 0.75 0
0.5625 0.75 0
0.53125 0.78125 0
0.5625 0.78125 0
0.5 0.78125 0
0.53125 0.78125 0
0.5 0.8125 0
0.53125 0.8125 0
0.53125 0.78125 0
0.5625 0.78125 0
0.53125 0.8125 0
0.5625 0.8125 0
0.5625 0.75 0
0.59375 0.75 0
0.5625 0.78125 0
0.59375 0.78125 0
0.59375 0.75 0
0.625 0.75 0
0.59375 0.78125 0
0.625 0.78125 0
0.5625 0.78125 0
0.59375 0.78125 0
0.5625 0.8125 0
0.59375 0.8125 0
0.59375 0.78125 0
0.625 0.78125 0
0.59375 0.8125 0
0.625 0.8125 0
0.5 0.8125 0
0.53125 0.8125 0
0.5 0.84375 0
0.53125 0.84375 0
0.53125 0.8125 0
0.5625 0.8125 0
0.53125 0.84375 0
0.5625 0.84375 0
0.5 0.84375 0
0.53125 0.84375 0
0.5 0.875 0
0.53125 0.875 0
0.53125 0.84375 0
0.5625 0.84375 0
0.53125 0.875 0
0.5625 0.875 0
0.5625 0.8125 0
0.59375 0.8125 0
0.5625 0.84375 0
0.59375 0.84375 0
0.59375 0.8125 0
0.625 0.8125 0
0.59375 0.84375 0
0.625 0.84375 0
0.5625 0.84375 0
0.59375 0.84375 0
0.5625 0.875 0
0.59375 0.875 0
0.59375 0.84375 0
0.625 0.84375 0
0.59375 0.875 0
0.625 0.875 0
0.625 0.75 0
0.65625 0.75 0
0.625 0.78125 0
0.65625 0.78125 0
0.65625 0.75 0
0.6875 0.75 0
0.65625 0.78125 0
0.6875 0.78125 0
0.625 0.78125 0
0.65625 0.78125 0
0.625 0.8125 0
0.65625 0.8125 0
0.65625 0.78125 0
0.6875 0.78125 0
0.65625 0.8125 0
0.6875 0.8125 0
0.6875 0.75 0
0.71875 0.75 0
0.6875 0.78125 0
0.71875 0.78125 0
0.71875 0.75 0
0.75 0.75 0
0.71875 0.78125 0
0.75 0.78125 0
0.6875 0.78125 0
0.71875 0.78125 0
0.6875 0.8125 0
0.71875 0.8125 0
0.71875 0.78125 0
0.75 0.78125 0
0.71875 0.8125 0
0.75 0.8125 0
0.625 0.8125 0
0.65625 0.8125 0
0.625 0.84375 0
0.65625 0.84375 0
0.65625 0.8125 0
0.6875 0.8125 0
0.65625 0.84375 0
0.6875 0.84375 0
0.625 0.84375 0
0.65625 0.84375 0
0.625 0.875 0
0.65625 0.875 0
0.65625 0.84375 0
0.6875 0.84375 0
0.65625 0.875 0
0.6875 0.875 0
0.6875 0.8125 0
0.71875 0.8125 0
0.6875 0.84375 0
[...]
POINT_DATA 10192
SCALARS x_dis double 1
LOOKUP_TABLE default
-0.000239482 -0.000231868 -0.000347838 -0.000340935 -0.000231868 -0.000222557 -0.000340935 -0.00033097 -0.000347838 -0.000340935 -0.000441753 -0.000436441 -0.000340935 -0.00033097 -0.000436441 -0.000427067 -0.000441753 -0.000436441 -0.000521523 -0.000518186 -0.000436441 -0.000427067 -0.000518186 -0.000510032 -0.000521523 -0.000518186 -0.000587234 -0.000585764 -0.000518186 -0.000510032 -0.000585764 -0.000579123 -0.000568643 -0.000581927 -0.00061696 -0.000631561 -0.000581927 -0.000587234 -0.000631561 -0.000638236 -0.00061696 -0.000631561 -0.000651205 -0.000667022 -0.000631561 -0.000638236 -0.000667022 -0.000674652 -0.000587234 -0.000585764 -0.000638236 -0.000638375 -0.000585764 -0.000579123 -0.000638375 -0.000633166 -0.000638236 -0.000638375 -0.000674652 -0.000675558 -0.000638375 -0.000633166 -0.000675558 -0.000671008 0.00062663 0.000576504 0.00055339 0.000518873 0.000576504 0.000540518 0.000518873 0.000491638 0.00055339 0.000518873 0.000457114 0.00043789 0.000518873 0.000491638 0.00043789 0.000420432 0.000540518 0.000515936 0.000491638 0.000471668 0.000515936 0.000501243 0.000471668 0.000458373 0.000491638 0.000471668 0.000420432 0.000406426 0.000471668 0.000458373 0.000406426 0.00039622 0.000457114 0.00043789 0.000355573 0.000344437 0.00043789 0.000420432 0.000344437 0.000334524 0.000355573 0.000344437 0.00025035 0.000244258 0.000344437 0.000334524 0.000244258 0.000239548 0.000420432 0.000406426 0.000334524 0.000326105 0.000406426 0.00039622 0.000326105 0.000319546 0.000334524 0.000326105 0.000239548 0.000235659 0.000326105 0.000319546 0.000235659 0.000232573 0.000271787 0.00025875 0.000151103 0.000145233 0.00025875 0.00025035 0.000145233 0.000141657 0.000151103 0.000145233 2.9491e-05 3.00219e-05 0.000145233 0.000141657 3.00219e-05 3.14413e-05 2.73732e-05 2.89899e-05 -0.00010261 -9.56872e-05 2.89899e-05 2.9491e-05 -9.56872e-05 -8.94716e-05 -0.00010261 -9.56872e-05 -0.000222557 -0.000212476 -9.56872e-05 -8.94716e-05 -0.000212476 -0.000202486 2.9491e-05 3.00219e-05 -8.94716e-05 -8.36746e-05 3.00219e-05 3.14413e-05 -8.36746e-05 -7.79544e-05 -8.94716e-05 -8.36746e-05 -0.000202486 -0.000192923 -8.36746e-05 -7.79544e-05 -0.000192923 -0.000183833 0.00025035 0.000244258 0.000141657 0.000139956 0.000244258 0.000239548 0.000139956 0.000139223 0.000141657 0.000139956 3.14413e-05 3.36633e-05 0.000139956 0.000139223 3.36633e-05 3.6305e-05 0.000239548 0.000235659 0.000139223 0.000138931 0.000235659 0.000232573 0.000138931 0.000138882 0.000139223 0.000138931 3.6305e-05 3.8983e-05 0.000138931 0.000138882 3.8983e-05 4.15355e-05 3.14413e-05 3.36633e-05 -7.79544e-05 -7.22378e-05 3.36633e-05 3.6305e-05 -7.22378e-05 -6.66964e-05 -7.79544e-05 -7.22378e-05 -0.000183833 -0.000175266 -7.22378e-05 -6.66964e-05 -0.000175266 -0.000167303 3.6305e-05 3.8983e-05 -6.66964e-05 -6.15052e-05 3.8983e-05 4.15355e-05 -6.15052e-05 -5.67238e-05 -6.66964e-05 -6.15052e-05 -0.000167303 -0.00016 -6.15052e-05 -5.67238e-05 -0.00016 -0.000153318 0.000501243 0.000495035 0.000458373 0.000450927 0.000495035 0.000495704 0.000450927 0.000448329 0.000458373 0.000450927 0.00039622 0.000389636 0.000450927 0.000448329 0.000389636 0.000386256 0.000495704 0.000501393 0.000448329 0.00044944 0.000501393 0.000510083 0.00044944 0.000453033 0.000448329 0.00044944 0.000386256 0.000385541 0.00044944 0.000453033 0.000385541 0.000386876 0.00039622 0.000389636 0.000319546 0.00031497 0.000389636 0.000386256 0.00031497 0.000312349 0.000319546 0.00031497 0.000232573 0.00023042 0.00031497 0.000312349 0.00023042 0.000229359 0.000386256 0.000385541 0.000312349 0.000311577 0.000385541 0.000386876 0.000311577 0.000312474 0.000312349 0.000311577 0.000229359 0.00022954 0.000311577 0.000312474 0.00022954 0.000231067 0.000510083 0.000519717 0.000453033 0.000457844 0.000519717 0.000528313 0.000457844 0.00046265 0.000453033 0.000457844 0.000386876 0.000389585 0.000457844 0.00046265 0.000389585 0.000392921 0.000528313 0.000534145 0.00046265 0.00046631 0.000534145 0.000536312 0.00046631 0.000467858 0.00046265 0.00046631 0.000392921 0.000396015 0.00046631 0.000467858 0.000396015 0.00039766 0.000386876 0.000389585 0.000312474 0.000314765 0.000389585 0.000392921 0.000314765 0.00031801 0.000312474 0.000314765 0.000231067 0.000233924 0.000314765 0.00031801 0.000233924 0.000237876 0.000392921 0.000396015 0.00031801 0.000321477 0.000396015 0.00039766 0.000321477 0.000323854 0.00031801 0.000321477 0.000237876 0.000242315 0.000321477 0.000323854 0.000242315 0.000246027 0.000232573 0.00023042 0.000138882 0.000139147 0.00023042 0.000229359 0.000139147 0.000139946 0.000138882 0.000139147 4.15355e-05 4.40282e-05 0.000139147 0.000139946 4.40282e-05 4.67088e-05 0.000229359 0.00022954 0.000139946 0.000141568 0.00022954 0.000231067 0.000141568 0.000144279 0.000139946 0.000141568 4.67088e-05 4.99309e-05 0.000141568 0.000144279 4.99309e-05 5.4058e-05 4.15355e-05 4.40282e-05 -5.67238e-05 -5.22469e-05 4.40282e-05 4.67088e-05 -5.22469e-05 -4.78013e-05 -5.67238e-05 -5.22469e-05 -0.000153318 -0.000147104 -5.22469e-05 -4.78013e-05 -0.000147104 -0.000141061 4.67088e-05 4.99309e-05 -4.78013e-05 -4.29955e-05 4.99309e-05 5.4058e-05 -4.29955e-05 -3.74062e-05 -4.78013e-05 -4.29955e-05 -0.000141061 -0.000134775 -4.29955e-05 -3.74062e-05 -0.000134775 -0.000127778 0.000231067 0.000233924 0.000144279 0.000148232 0.000233924 0.000237876 0.000148232 0.000153348 0.000144279 0.000148232 5.4058e-05 5.93579e-05 0.000148232 0.000153348 5.93579e-05 6.58925e-05 0.000237876 0.000242315 0.000153348 0.000159179 0.000242315 0.000246027 0.000159179 0.000164742 0.000153348 0.000159179 6.58925e-05 7.3406e-05 0.000159179 0.000164742 7.3406e-05 8.12247e-05 5.4058e-05 5.93579e-05 -3.74062e-05 -3.0675e-05 5.93579e-05 6.58925e-05 -3.0675e-05 -2.26005e-05 -3.74062e-05 -3.0675e-05 -0.000127778 -0.000119628 -3.0675e-05 -2.26005e-05 -0.000119628 -0.000109983 6.58925e-05 7.3406e-05 -2.26005e-05 -1.32206e-05 7.3406e-05 8.12247e-05 -1.32206e-05 -2.86532e-06 -2.26005e-05 -1.32206e-05 -0.000109983 -9.86482e-05 -1.32206e-05 -2.86532e-06 -9.86482e-05 -8.56024e-05 -0.000222557 -0.000212476 -0.00033097 -0.000319388 -0.000212476 -0.000202486 -0.000319388 -0.000307222 -0.00033097 -0.000319388 -0.000427067 -0.000415137 -0.000319388 -0.000307222 -0.000415137 -0.000401901 -0.000202486 -0.000192923 -0.000307222 -0.000295182 -0.000192923 -0.000183833 -0.000295182 -0.000283689 -0.000307222 -0.000295182 -0.000401901 -0.000388378 -0.000295182 -0.000283689 -0.000388378 -0.00037528 -0.000427067 -0.000415137 -0.000510032 -0.000498601 -0.000415137 -0.000401901 -0.000498601 -0.000485109 -0.000510032 -0.000498601 -0.000579123 -0.000568793 -0.000498601 -0.000485109 -0.000568793 -0.00055562 -0.000401901 -0.000388378 -0.000485109 -0.000470749 -0.000388378 -0.00037528 -0.000470749 -0.000456634 -0.000485109 -0.000470749 -0.00055562 -0.000540841 -0.000470749 -0.000456634 -0.000540841 -0.000525952 -0.000183833 -0.000175266 -0.000283689 -0.000272957 -0.000175266 -0.000167303 -0.000272957 -0.000263079 -0.000283689 -0.000272957 -0.00037528 -0.000363016 -0.000272957 -0.000263079 -0.000363016 -0.000351695 -0.000167303 -0.00016 -0.000263079 -0.000254044 -0.00016 -0.000153318 -0.000254044 -0.00024576 -0.000263079 -0.000254044 -0.000351695 -0.000341277 -0.000254044 -0.00024576 -0.000341277 -0.000331648 -0.00037528 -0.000363016 -0.000456634 -0.000443344 -0.000363016 -0.000351695 -0.000443344 -0.000431006 -0.000456634 -0.000443344 -0.000525952 -0.000512162 -0.000443344 -0.000431006 -0.000512162 -0.000499041 -0.000351695 -0.000341277 -0.000431006 -0.000419468 -0.000341277 -0.000331648 -0.000419468 -0.000408698 -0.000431006 -0.000419468 -0.000499041 -0.000486561 -0.000419468 -0.000408698 -0.000486561 -0.000474727 -0.000579123 -0.000568793 -0.000633166 -0.000624447 -0.000568793 -0.00055562 -0.000624447 -0.000612719 -0.000633166 -0.000624447 -0.000671008 -0.000663246 -0.000624447 -0.000612719 -0.000663246 -0.000654999 -0.00055562 -0.000540841 -0.000612719 -0.000597333 -0.000540841 -0.000525952 -0.000597333 -0.000582098 -0.000612719 -0.000597333 -0.000654999 -0.000641946 -0.000597333 -0.000582098 -0.000641946 -0.000623473 -0.000525952 -0.000512162 -0.000582098 -0.000567822 -0.000512162 -0.000499041 -0.000567822 -0.0005543 -0.000582098 -0.000567822 -0.000623473 -0.000611334 -0.000567822 -0.0005543 -0.000611334 -0.000593231 -0.000499041 -0.000486561 -0.0005543 -0.00054034 -0.000486561 -0.000474727 -0.00054034 -0.000527726 -0.0005543 -0.00054034 -0.000593231 -0.000578728 -0.00054034 -0.000527726 -0.000578728 -0.000566067 -0.000623473 -0.000611334 -0.000655309 -0.000628277 -0.000611334 -0.000593231 -0.000628277 -0.00061295 -0.000655309 -0.000628277 -0.000614302 -0.00062048 -0.000628277 -0.00061295 -0.00062048 -0.000617504 -0.000593231 -0.000578728 -0.00061295 -0.000600745 -0.000578728 -0.000566067 -0.000600745 -0.000588944 -0.00061295 -0.000600745 -0.000617504 -0.000607573 -0.000600745 -0.000588944 -0.000607573 -0.00059648 -0.000153318 -0.000147104 -0.00024576 -0.000238042 -0.000147104 -0.000141061 -0.000238042 -0.000230584 -0.00024576 -0.000238042 -0.000331648 -0.000322635 -0.000238042 -0.000230584 -0.000322635 -0.000313943 -0.000141061 -0.000134775 -0.000230584 -0.000222958 -0.000134775 -0.000127778 -0.000222958 -0.000214659 -0.000230584 -0.000222958 -0.000313943 -0.000305139 -0.000222958 -0.000214659 -0.000305139 -0.000295675 -0.000331648 -0.000322635 -0.000408698 -0.000398567 -0.000322635 -0.000313943 -0.000398567 -0.000388829 -0.000408698 -0.000398567 -0.000474727 -0.000463688 -0.000398567 -0.000388829 -0.000463688 -0.000453123 -0.000313943 -0.000305139 -0.000388829 -0.000379024 -0.000305139 -0.000295675 -0.000379024 -0.00036856 -0.000388829 -0.000379024 -0.000453123 -0.000442524 -0.000379024 -0.00036856 -0.000442524 -0.000431245 -0.000127778 -0.000119628 -0.000214659 -0.000205164 -0.000119628 -0.000109983 -0.000205164 -0.000193984 -0.000214659 -0.000205164 -0.000295675 -0.000284948 -0.000205164 -0.000193984 -0.000284948 -0.000272327 -0.000109983 -9.86482e-05 -0.000193984 -0.000180695 -9.86482e-05 -8.56024e-05 -0.000180695 -0.000164932 -0.000193984 -0.000180695 -0.000272327 -0.000257165 -0.000180695 -0.000164932 -0.000257165 -0.000238778 -0.000295675 -0.000284948 -0.00036856 -0.000356749 -0.000284948 -0.000272327 -0.000356749 -0.000342828 -0.00036856 -0.000356749 -0.000431245 -0.000418527 -0.000356749 -0.000342828 -0.000418527 -0.00040349 -0.000272327 -0.000257165 -0.000342828 -0.000325949 -0.000257165 -0.000238778 -0.000325949 -0.00030514 -0.000342828 -0.000325949 -0.00040349 -0.000385113 -0.000325949 -0.00030514 -0.000385113 -0.000362184 -0.000474727 -0.000463688 -0.000527726 -0.000516099 -0.000463688 -0.000453123 -0.000516099 -0.000504988 -0.000527726 -0.000516099 -0.000566067 -0.000554323 -0.000516099 -0.000504988 -0.000554323 -0.000542977 -0.000453123 -0.000442524 -0.000504988 -0.000493827 -0.000442524 -0.000431245 -0.000493827 -0.000481939 -0.000504988 -0.000493827 -0.000542977 -0.00053149 -0.000493827 -0.000481939 -0.00053149 -0.000519198 -0.000566067 -0.000554323 -0.000588944 -0.000577467 -0.000554323 -0.000542977 -0.000577467 -0.000566111 -0.000588944 -0.000577467 -0.00059648 -0.000585194 -0.000577467 -0.000566111 -0.000585194 -0.000573873 -0.000542977 -0.00053149 -0.000566111 -0.000554485 -0.00053149 -0.000519198 -0.000554485 -0.000541974 -0.000566111 -0.000554485 -0.000573873 -0.000562214 -0.000554485 -0.000541974 -0.000562214 -0.000549636 -0.000431245 -0.000418527 -0.000481939 -0.000468512 -0.000418527 -0.00040349 -0.000468512 -0.000452578 -0.000481939 -0.000468512 -0.000519198 -0.000505271 -0.000468512 -0.000452578 -0.000505271 -0.000488683 -0.00040349 -0.000385113 -0.000452578 -0.000432978 -0.000385113 -0.000362184 -0.000432978 -0.00040831 -0.000452578 -0.000432978 -0.000488683 -0.000468178 -0.000432978 -0.00040831 -0.000468178 -0.00044222 -0.000519198 -0.000505271 -0.000541974 -0.000527753 -0.000505271 -0.000488683 -0.000527753 -0.000510767 -0.000541974 -0.000527753 -0.000549636 -0.000535319 -0.000527753 -0.000510767 -0.000535319 -0.0005182 -0.000488683 -0.000468178 -0.000510767 -0.000489708 -0.000468178 -0.00044222 -0.000489708 -0.000462956 -0.000510767 -0.000489708 -0.0005182 -0.000496953 -0.000489708 -0.000462956 -0.000496953 -0.000469934 -0.000547808 -0.000594446 -0.000542352 -0.000588674 -0.000594446 -0.000634091 -0.000588674 -0.000627971 -0.000542352 -0.000588674 -0.00052601 -0.000571384 -0.000588674 -0.000627971 -0.000571384 -0.000609649 -0.000634091 -0.000667436 -0.000627971 -0.000660967 -0.000667436 -0.000695326 -0.000660967 -0.000688528 -0.000627971 -0.000660967 -0.000609649 -0.000641612 -0.000660967 -0.000688528 -0.000641612 -0.000668207 -0.00052601 -0.000571384 -0.000498845 -0.000542652 -0.000571384 -0.000609649 -0.000542652 -0.000579229 -0.000498845 -0.000542652 -0.000460936 -0.000502578 -0.000542652 -0.000579229 -0.000502578 -0.00053686 -0.000609649 -0.000641612 -0.000579229 -0.000609524 -0.000641612 -0.000668207 -0.000609524 -0.000634576 -0.000579229 -0.000609524 -0.00053686 -0.000564942 -0.000609524 -0.000634576 -0.000564942 -0.000587981 -0.000460936 -0.000502578 -0.000412361 -0.000451214 -0.000502578 -0.00053686 -0.000451214 -0.000482712 -0.000412361 -0.000451214 -0.000352792 -0.000388642 -0.000451214 -0.000482712 -0.000388642 -0.000417077 -0.00053686 -0.000564942 -0.000482712 -0.000508187 -0.000564942 -0.000587981 -0.000508187 -0.000528862 -0.000482712 -0.000508187 -0.000417077 -0.000439533 -0.000508187 -0.000528862 -0.000439533 -0.000457695 -0.000417077 -0.000439533 -0.000339433 -0.000359056 -0.000439533 -0.000457695 -0.000359056 -0.000374983 -0.000339433 -0.000359056 -0.00025011 -0.00026706 -0.000359056 -0.000374983 -0.00026706 -0.000281296 -0.00025011 -0.00026706 -0.000148401 -0.000163626 -0.00026706 -0.000281296 -0.000163626 -0.00017726 -0.000148401 -0.000163626 -3.35974e-05 -4.88231e-05 -0.000163626 -0.00017726 -4.88231e-05 -6.37518e-05 -0.000695326 -0.000718652 -0.000688528 -0.000711563 -0.000718652 -0.000738288 -0.000711563 -0.000730954 -0.000688528 -0.000711563 -0.000668207 -0.000690389 -0.000711563 -0.000730954 -0.000690389 -0.000709066 -0.000738288 -0.000755021 -0.000730954 -0.000747491 -0.000755021 -0.000769491 -0.000747491 -0.000761813 -0.000730954 -0.000747491 -0.000709066 -0.000725036 -0.000747491 -0.000761813 -0.000725036 -0.000738935 -0.000668207 -0.000690389 -0.000634576 -0.000655411 -0.000690389 -0.000709066 -0.000655411 -0.000672972 -0.000634576 -0.000655411 -0.000587981 -0.00060708 -0.000655411 -0.000672972 -0.00060708 -0.000623236 -0.000709066 -0.000725036 -0.000672972 -0.000688068 -0.000725036 -0.000738935 -0.000688068 -0.000701329 -0.000672972 -0.000688068 -0.000623236 -0.000637263 -0.000688068 -0.000701329 -0.000637263 -0.00064977 -0.000769491 -0.000782159 -0.000761813 -0.000774378 -0.000782159 -0.000793297 -0.000774378 -0.000785455 -0.000761813 -0.000774378 -0.000738935 -0.000751212 -0.000774378 -0.000785455 -0.000751212 -0.000762116 -0.000793297 -0.000802986 -0.000785455 -0.000795116 -0.000802986 -0.00081114 -0.000795116 -0.00080327 -0.000785455 -0.000795116 -0.000762116 -0.0007717 -0.000795116 -0.00080327 -0.0007717 -0.000779848 -0.000738935 -0.000751212 -0.000701329 -0.00071318 -0.000751212 -0.000762116 -0.00071318 -0.00072384 -0.000701329 -0.00071318 -0.00064977 -0.000661141 -0.00071318 -0.00072384 -0.000661141 -0.000671546 -0.000762116 -0.0007717 -0.00072384 -0.000733323 -0.0007717 -0.000779848 -0.000733323 -0.000741478 -0.00072384 -0.000733323 -0.000671546 -0.000680946 -0.000733323 -0.000741478 -0.000680946 -0.00068915 -0.000587981 -0.00060708 -0.000528862 -0.000545998 -0.00060708 -0.000623236 -0.000545998 -0.000560628 -0.000528862 -0.000545998 -0.000457695 -0.000472884 -0.000545998 -0.000560628 -0.000472884 -0.000486102 -0.000623236 -0.000637263 -0.000560628 -0.000573549 -0.000637263 -0.00064977 -0.000573549 -0.000585322 -0.000560628 -0.000573549 -0.000486102 -0.00049809 -0.000573549 -0.000585322 -0.00049809 -0.000509321 -0.000457695 -0.000472884 -0.000374983 -0.000388569 -0.000472884 -0.000486102 -0.000388569 -0.000400788 -0.000374983 -0.000388569 -0.000281296 -0.000294003 -0.000388569 -0.000400788 -0.000294003 -0.000305999 -0.000486102 -0.00049809 -0.000400788 -0.00041227 -0.00049809 -0.000509321 -0.00041227 -0.000423349 -0.000400788 -0.00041227 -0.000305999 -0.000317697 -0.00041227 -0.000423349 -0.000317697 -0.000329222 -0.00064977 -0.000661141 -0.000585322 -0.000596267 -0.000661141 -0.000671546 -0.000596267 -0.000606485 -0.000585322 -0.000596267 -0.000509321 -0.000520023 -0.000596267 -0.000606485 -0.000520023 -0.000530211 -0.000671546 -0.000680946 -0.000606485 -0.000615878 -0.000680946 -0.00068915 -0.000615878 -0.000624205 -0.000606485 -0.000615878 -0.000530211 -0.000539729 -0.000615878 -0.000624205 -0.000539729 -0.000548291 -0.000509321 -0.000520023 -0.000423349 -0.00043413 -0.000520023 -0.000530211 -0.00043413 -0.000444538 -0.000423349 -0.00043413 -0.000329222 -0.000340535 -0.00043413 -0.000444538 -0.000340535 -0.000351494 -0.000530211 -0.000539729 -0.000444538 -0.000454371 -0.000539729 -0.000548291 -0.000454371 -0.000463305 -0.000444538 -0.000454371 -0.000351494 -0.000361872 -0.000454371 -0.000463305 -0.000361872 -0.000371337 -0.00081114 -0.000817533 -0.00080327 -0.000809676 -0.000817533 -0.00082178 -0.000809676 -0.000813947 -0.00080327 -0.000809676 -0.000779848 -0.0007863 -0.000809676 -0.000813947 -0.0007863 -0.000790652 -0.00082178 -0.000823357 -0.000813947 -0.00081556 -0.000823357 -0.000821612 -0.00081556 -0.000813866 -0.000813947 -0.00081556 -0.000790652 -0.000792376 -0.00081556 -0.000813866 -0.000792376 -0.000790834 -0.000779848 -0.0007863 -0.000741478 -0.000748015 -0.0007863 -0.000790652 -0.000748015 -0.000752508 -0.000741478 -0.000748015 -0.00068915 -0.000695827 -0.000748015 -0.000752508 -0.000695827 -0.000700529 -0.000790652 -0.000792376 -0.000752508 -0.000754424 -0.000792376 -0.000790834 -0.000754424 -0.000753136 -0.000752508 -0.000754424 -0.000700529 -0.000702716 -0.000754424 -0.000753136 -0.000702716 -0.000701779 -0.000821612 -0.000815766 -0.000813866 -0.000808092 -0.000815766 -0.000804892 -0.000808092 -0.000797323 -0.000813866 -0.000808092 -0.000790834 -0.000785275 -0.000808092 -0.000797323 -0.000785275 -0.00077482 -0.000804892 -0.000787881 -0.000797323 -0.000780471 -0.000787881 -0.000763389 -0.000780471 -0.000756215 -0.000797323 -0.000780471 -0.00077482 -0.000758436 -0.000780471 -0.000756215 -0.000758436 -0.000734882 -0.000790834 -0.000785275 -0.000753136 -0.000747928 -0.000785275 -0.00077482 -0.000747928 -0.000737983 -0.000753136 -0.000747928 -0.000701779 -0.000697049 -0.000747928 -0.000737983 -0.000697049 -0.000687791 -0.00077482 -0.000758436 -0.000737983 -0.000722359 -0.000758436 -0.000734882 -0.000722359 -0.000699946 -0.000737983 -0.000722359 -0.000687791 -0.00067319 -0.000722359 -0.000699946 -0.00067319 -0.000652308 -0.00068915 -0.000695827 -0.000624205 -0.000631098 -0.000695827 -0.000700529 -0.000631098 -0.000636083 -0.000624205 -0.000631098 -0.000548291 -0.000555491 -0.000631098 -0.000636083 -0.000555491 -0.00056084 -0.000700529 -0.000702716 -0.000636083 -0.00063862 -0.000702716 -0.000701779 -0.00063862 -0.000638122 -0.000636083 -0.00063862 -0.00056084 -0.000563801 -0.00063862 -0.000638122 -0.000563801 -0.000563822 -0.000548291 -0.000555491 -0.000463305 -0.000470916 -0.000555491 -0.00056084 -0.000470916 -0.00047671 -0.000463305 -0.000470916 -0.000371337 -0.000379466 -0.000470916 -0.00047671 -0.000379466 -0.000385779 -0.00056084 -0.000563801 -0.00047671 -0.000480165 -0.000563801 -0.000563822 -0.000480165 -0.000480768 -0.00047671 -0.000480165 -0.000385779 -0.00038978 -0.000480165 -0.000480768 -0.00038978 -0.000391011 -0.000701779 -0.000697049 -0.000638122 -0.00063398 -0.000697049 -0.000687791 -0.00063398 -0.000625563 -0.000638122 -0.00063398 -0.000563822 -0.000560361 -0.00063398 -0.000625563 -0.000560361 -0.000552905 -0.000687791 -0.00067319 -0.000625563 -0.000612207 -0.00067319 -0.000652308 -0.000612207 -0.000593186 -0.000625563 -0.000612207 -0.00055