# vtk DataFile Version 3.0
#This file was generated by the deal.II library on 2022/11/17 at 1:23:24
ASCII
DATASET UNSTRUCTURED_GRID

POINTS 10288 double
0.4375 0.75 0
0.46875 0.75 0
0.4375 0.78125 0
0.46875 0.78125 0
0.46875 0.75 0
0.5 0.75 0
0.46875 0.78125 0
0.5 0.78125 0
0.4375 0.78125 0
0.46875 0.78125 0
0.4375 0.8125 0
0.46875 0.8125 0
0.46875 0.78125 0
0.5 0.78125 0
0.46875 0.8125 0
0.5 0.8125 0
0.4375 0.8125 0
0.46875 0.8125 0
0.4375 0.84375 0
0.46875 0.84375 0
0.46875 0.8125 0
0.5 0.8125 0
0.46875 0.84375 0
0.5 0.84375 0
0.4375 0.84375 0
0.46875 0.84375 0
0.4375 0.875 0
0.46875 0.875 0
0.46875 0.84375 0
0.5 0.84375 0
0.46875 0.875 0
0.5 0.875 0
0.375 0.875 0
0.40625 0.875 0
0.375 0.90625 0
0.40625 0.90625 0
0.40625 0.875 0
0.4375 0.875 0
0.40625 0.90625 0
0.4375 0.90625 0
0.375 0.90625 0
0.40625 0.90625 0
0.375 0.9375 0
0.40625 0.9375 0
0.40625 0.90625 0
0.4375 0.90625 0
0.40625 0.9375 0
0.4375 0.9375 0
0.4375 0.875 0
0.46875 0.875 0
0.4375 0.90625 0
0.46875 0.90625 0
0.46875 0.875 0
0.5 0.875 0
0.46875 0.90625 0
0.5 0.90625 0
0.4375 0.90625 0
0.46875 0.90625 0
0.4375 0.9375 0
0.46875 0.9375 0
0.46875 0.90625 0
0.5 0.90625 0
0.46875 0.9375 0
0.5 0.9375 0
0.625 0.5 0
0.65625 0.5 0
0.625 0.53125 0
0.65625 0.53125 0
0.65625 0.5 0
0.6875 0.5 0
0.65625 0.53125 0
0.6875 0.53125 0
0.625 0.53125 0
0.65625 0.53125 0
0.625 0.5625 0
0.65625 0.5625 0
0.65625 0.53125 0
0.6875 0.53125 0
0.65625 0.5625 0
0.6875 0.5625 0
0.6875 0.5 0
0.71875 0.5 0
0.6875 0.53125 0
0.71875 0.53125 0
0.71875 0.5 0
0.75 0.5 0
0.71875 0.53125 0
0.75 0.53125 0
0.6875 0.53125 0
0.71875 0.53125 0
0.6875 0.5625 0
0.71875 0.5625 0
0.71875 0.53125 0
0.75 0.53125 0
0.71875 0.5625 0
0.75 0.5625 0
0.625 0.5625 0
0.65625 0.5625 0
0.625 0.59375 0
0.65625 0.59375 0
0.65625 0.5625 0
0.6875 0.5625 0
0.65625 0.59375 0
0.6875 0.59375 0
0.625 0.59375 0
0.65625 0.59375 0
0.625 0.625 0
0.65625 0.625 0
0.65625 0.59375 0
0.6875 0.59375 0
0.65625 0.625 0
0.6875 0.625 0
0.6875 0.5625 0
0.71875 0.5625 0
0.6875 0.59375 0
0.71875 0.59375 0
0.71875 0.5625 0
0.75 0.5625 0
0.71875 0.59375 0
0.75 0.59375 0
0.6875 0.59375 0
0.71875 0.59375 0
0.6875 0.625 0
0.71875 0.625 0
0.71875 0.59375 0
0.75 0.59375 0
0.71875 0.625 0
0.75 0.625 0
0.5625 0.625 0
0.59375 0.625 0
0.5625 0.65625 0
0.59375 0.65625 0
0.59375 0.625 0
0.625 0.625 0
0.59375 0.65625 0
0.625 0.65625 0
0.5625 0.65625 0
0.59375 0.65625 0
0.5625 0.6875 0
0.59375 0.6875 0
0.59375 0.65625 0
0.625 0.65625 0
0.59375 0.6875 0
0.625 0.6875 0
0.5 0.6875 0
0.53125 0.6875 0
0.5 0.71875 0
0.53125 0.71875 0
0.53125 0.6875 0
0.5625 0.6875 0
0.53125 0.71875 0
0.5625 0.71875 0
0.5 0.71875 0
0.53125 0.71875 0
0.5 0.75 0
0.53125 0.75 0
0.53125 0.71875 0
0.5625 0.71875 0
0.53125 0.75 0
0.5625 0.75 0
0.5625 0.6875 0
0.59375 0.6875 0
0.5625 0.71875 0
0.59375 0.71875 0
0.59375 0.6875 0
0.625 0.6875 0
0.59375 0.71875 0
0.625 0.71875 0
0.5625 0.71875 0
0.59375 0.71875 0
0.5625 0.75 0
0.59375 0.75 0
0.59375 0.71875 0
0.625 0.71875 0
0.59375 0.75 0
0.625 0.75 0
0.625 0.625 0
0.65625 0.625 0
0.625 0.65625 0
0.65625 0.65625 0
0.65625 0.625 0
0.6875 0.625 0
0.65625 0.65625 0
0.6875 0.65625 0
0.625 0.65625 0
0.65625 0.65625 0
0.625 0.6875 0
0.65625 0.6875 0
0.65625 0.65625 0
0.6875 0.65625 0
0.65625 0.6875 0
0.6875 0.6875 0
0.6875 0.625 0
0.71875 0.625 0
0.6875 0.65625 0
0.71875 0.65625 0
0.71875 0.625 0
0.75 0.625 0
0.71875 0.65625 0
0.75 0.65625 0
0.6875 0.65625 0
0.71875 0.65625 0
0.6875 0.6875 0
0.71875 0.6875 0
0.71875 0.65625 0
0.75 0.65625 0
0.71875 0.6875 0
0.75 0.6875 0
0.625 0.6875 0
0.65625 0.6875 0
0.625 0.71875 0
0.65625 0.71875 0
0.65625 0.6875 0
0.6875 0.6875 0
0.65625 0.71875 0
0.6875 0.71875 0
0.625 0.71875 0
0.65625 0.71875 0
0.625 0.75 0
0.65625 0.75 0
0.65625 0.71875 0
0.6875 0.71875 0
0.65625 0.75 0
0.6875 0.75 0
0.6875 0.6875 0
0.71875 0.6875 0
0.6875 0.71875 0
0.71875 0.71875 0
0.71875 0.6875 0
0.75 0.6875 0
0.71875 0.71875 0
0.75 0.71875 0
0.6875 0.71875 0
0.71875 0.71875 0
0.6875 0.75 0
0.71875 0.75 0
0.71875 0.71875 0
0.75 0.71875 0
0.71875 0.75 0
0.75 0.75 0
0.75 0.5 0
0.78125 0.5 0
0.75 0.53125 0
0.78125 0.53125 0
0.78125 0.5 0
0.8125 0.5 0
0.78125 0.53125 0
0.8125 0.53125 0
0.75 0.53125 0
0.78125 0.53125 0
0.75 0.5625 0
0.78125 0.5625 0
0.78125 0.53125 0
0.8125 0.53125 0
0.78125 0.5625 0
0.8125 0.5625 0
0.8125 0.5 0
0.84375 0.5 0
0.8125 0.53125 0
0.84375 0.53125 0
0.84375 0.5 0
0.875 0.5 0
0.84375 0.53125 0
0.875 0.53125 0
0.8125 0.53125 0
0.84375 0.53125 0
0.8125 0.5625 0
0.84375 0.5625 0
0.84375 0.53125 0
0.875 0.53125 0
0.84375 0.5625 0
0.875 0.5625 0
0.75 0.5625 0
0.78125 0.5625 0
0.75 0.59375 0
0.78125 0.59375 0
0.78125 0.5625 0
0.8125 0.5625 0
0.78125 0.59375 0
0.8125 0.59375 0
0.75 0.59375 0
0.78125 0.59375 0
0.75 0.625 0
0.78125 0.625 0
0.78125 0.59375 0
0.8125 0.59375 0
0.78125 0.625 0
0.8125 0.625 0
0.8125 0.5625 0
0.84375 0.5625 0
0.8125 0.59375 0
0.84375 0.59375 0
0.84375 0.5625 0
0.875 0.5625 0
0.84375 0.59375 0
0.875 0.59375 0
0.8125 0.59375 0
0.84375 0.59375 0
0.8125 0.625 0
0.84375 0.625 0
0.84375 0.59375 0
0.875 0.59375 0
0.84375 0.625 0
0.875 0.625 0
0.875 0.5 0
0.90625 0.5 0
0.875 0.53125 0
0.90625 0.53125 0
0.90625 0.5 0
0.9375 0.5 0
0.90625 0.53125 0
0.9375 0.53125 0
0.875 0.53125 0
0.90625 0.53125 0
0.875 0.5625 0
0.90625 0.5625 0
0.90625 0.53125 0
0.9375 0.53125 0
0.90625 0.5625 0
0.9375 0.5625 0
0.9375 0.5 0
0.96875 0.5 0
0.9375 0.53125 0
0.96875 0.53125 0
0.96875 0.5 0
1 0.5 0
0.96875 0.53125 0
1 0.53125 0
0.9375 0.53125 0
0.96875 0.53125 0
0.9375 0.5625 0
0.96875 0.5625 0
0.96875 0.53125 0
1 0.53125 0
0.96875 0.5625 0
1 0.5625 0
0.875 0.5625 0
0.90625 0.5625 0
0.875 0.59375 0
0.90625 0.59375 0
0.90625 0.5625 0
0.9375 0.5625 0
0.90625 0.59375 0
0.9375 0.59375 0
0.875 0.59375 0
0.90625 0.59375 0
0.875 0.625 0
0.90625 0.625 0
0.90625 0.59375 0
0.9375 0.59375 0
0.90625 0.625 0
0.9375 0.625 0
0.9375 0.5625 0
0.96875 0.5625 0
0.9375 0.59375 0
0.96875 0.59375 0
0.96875 0.5625 0
1 0.5625 0
0.96875 0.59375 0
1 0.59375 0
0.9375 0.59375 0
0.96875 0.59375 0
0.9375 0.625 0
0.96875 0.625 0
0.96875 0.59375 0
1 0.59375 0
0.96875 0.625 0
1 0.625 0
0.75 0.625 0
0.78125 0.625 0
0.75 0.65625 0
0.78125 0.65625 0
0.78125 0.625 0
0.8125 0.625 0
0.78125 0.65625 0
0.8125 0.65625 0
0.75 0.65625 0
0.78125 0.65625 0
0.75 0.6875 0
0.78125 0.6875 0
0.78125 0.65625 0
0.8125 0.65625 0
0.78125 0.6875 0
0.8125 0.6875 0
0.8125 0.625 0
0.84375 0.625 0
0.8125 0.65625 0
0.84375 0.65625 0
0.84375 0.625 0
0.875 0.625 0
0.84375 0.65625 0
0.875 0.65625 0
0.8125 0.65625 0
0.84375 0.65625 0
0.8125 0.6875 0
0.84375 0.6875 0
0.84375 0.65625 0
0.875 0.65625 0
0.84375 0.6875 0
0.875 0.6875 0
0.75 0.6875 0
0.78125 0.6875 0
0.75 0.71875 0
0.78125 0.71875 0
0.78125 0.6875 0
0.8125 0.6875 0
0.78125 0.71875 0
0.8125 0.71875 0
0.75 0.71875 0
0.78125 0.71875 0
0.75 0.75 0
0.78125 0.75 0
0.78125 0.71875 0
0.8125 0.71875 0
0.78125 0.75 0
0.8125 0.75 0
0.8125 0.6875 0
0.84375 0.6875 0
0.8125 0.71875 0
0.84375 0.71875 0
0.84375 0.6875 0
0.875 0.6875 0
0.84375 0.71875 0
0.875 0.71875 0
0.8125 0.71875 0
0.84375 0.71875 0
0.8125 0.75 0
0.84375 0.75 0
0.84375 0.71875 0
0.875 0.71875 0
0.84375 0.75 0
0.875 0.75 0
0.875 0.625 0
0.90625 0.625 0
0.875 0.65625 0
0.90625 0.65625 0
0.90625 0.625 0
0.9375 0.625 0
0.90625 0.65625 0
0.9375 0.65625 0
0.875 0.65625 0
0.90625 0.65625 0
0.875 0.6875 0
0.90625 0.6875 0
0.90625 0.65625 0
0.9375 0.65625 0
0.90625 0.6875 0
0.9375 0.6875 0
0.9375 0.625 0
0.96875 0.625 0
0.9375 0.65625 0
0.96875 0.65625 0
0.96875 0.625 0
1 0.625 0
0.96875 0.65625 0
1 0.65625 0
0.9375 0.65625 0
0.96875 0.65625 0
0.9375 0.6875 0
0.96875 0.6875 0
0.96875 0.65625 0
1 0.65625 0
0.96875 0.6875 0
1 0.6875 0
0.875 0.6875 0
0.90625 0.6875 0
0.875 0.71875 0
0.90625 0.71875 0
0.90625 0.6875 0
0.9375 0.6875 0
0.90625 0.71875 0
0.9375 0.71875 0
0.875 0.71875 0
0.90625 0.71875 0
0.875 0.75 0
0.90625 0.75 0
0.90625 0.71875 0
0.9375 0.71875 0
0.90625 0.75 0
0.9375 0.75 0
0.9375 0.6875 0
0.96875 0.6875 0
0.9375 0.71875 0
0.96875 0.71875 0
0.96875 0.6875 0
1 0.6875 0
0.96875 0.71875 0
1 0.71875 0
0.9375 0.71875 0
0.96875 0.71875 0
0.9375 0.75 0
0.96875 0.75 0
0.96875 0.71875 0
1 0.71875 0
0.96875 0.75 0
1 0.75 0
0.5 0.75 0
0.53125 0.75 0
0.5 0.78125 0
0.53125 0.78125 0
0.53125 0.75 0
0.5625 0.75 0
0.53125 0.78125 0
0.5625 0.78125 0
0.5 0.78125 0
0.53125 0.78125 0
0.5 0.8125 0
0.53125 0.8125 0
0.53125 0.78125 0
0.5625 0.78125 0
0.53125 0.8125 0
0.5625 0.8125 0
0.5625 0.75 0
0.59375 0.75 0
0.5625 0.78125 0
0.59375 0.78125 0
0.59375 0.75 0
0.625 0.75 0
0.59375 0.78125 0
0.625 0.78125 0
0.5625 0.78125 0
0.59375 0.78125 0
0.5625 0.8125 0
0.59375 0.8125 0
0.59375 0.78125 0
0.625 0.78125 0
0.59375 0.8125 0
0.625 0.8125 0
0.5 0.8125 0
0.53125 0.8125 0
0.5 0.84375 0
0.53125 0.84375 0
0.53125 0.8125 0
0.5625 0.8125 0
0.53125 0.84375 0
0.5625 0.84375 0
0.5 0.84375 0
0.53125 0.84375 0
0.5 0.875 0
0.53125 0.875 0
0.53125 0.84375 0
0.5625 0.84375 0
0.53125 0.875 0
0.5625 0.875 0
0.5625 0.8125 0
0.59375 0.8125 0
0.5625 0.84375 0
0.59375 0.84375 0
0.59375 0.8125 0
0.625 0.8125 0
0.59375 0.84375 0
0.625 0.84375 0
0.5625 0.84375 0
0.59375 0.84375 0
0.5625 0.875 0
0.59375 0.875 0
0.59375 0.84375 0
0.625 0.84375 0
0.59375 0.875 0
0.625 0.875 0
0.625 0.75 0
0.65625 0.75 0
0.625 0.78125 0
0.65625 0.78125 0
0.65625 0.75 0
0.6875 0.75 0
0.65625 0.78125 0
0.6875 0.78125 0
0.625 0.78125 0
0.65625 0.78125 0
0.625 0.8125 0
0.65625 0.8125 0
0.65625 0.78125 0
0.6875 0.78125 0
0.65625 0.8125 0
0.6875 0.8125 0
0.6875 0.75 0
0.71875 0.75 0
0.6875 0.78125 0
0.71875 0.78125 0
0.71875 0.75 0
0.75 0.75 0
0.71875 0.78125 0
0.75 0.78125 0
0.6875 0.78125 0
0.71875 0.78125 0
0.6875 0.8125 0
0.71875 0.8125 0
0.71875 0.78125 0
0.75 0.78125 0
0.71875 0.8125 0
0.75 0.8125 0
0.625 0.8125 0
0.65625 0.8125 0
0.625 0.84375 0
0.65625 0.84375 0
0.65625 0.8125 0
0.6875 0.8125 0
0.65625 0.84375 0
0.6875 0.84375 0
0.625 0.84375 0
0.65625 0.84375 0
0.625 0.875 0
0.65625 0.875 0
0.65625 0.84375 0
0.6875 0.84375 0
0.65625 0.875 0
0.6875 0.875 0
0.6875 0.8125 0
0.71875 0.8125 0
0.6875 0.84375 0
[...]
POINT_DATA 10288
SCALARS x_dis double 1
LOOKUP_TABLE default
-1.99086e-05 1.68059e-05 -9.38507e-05 -4.67106e-05 1.68059e-05 5.05657e-05 -4.67106e-05 -2.57479e-06 -9.38507e-05 -4.67106e-05 -0.00016152 -0.00010474 -4.67106e-05 -2.57479e-06 -0.00010474 -5.12482e-05 -0.00016152 -0.00010474 -0.000221172 -0.00015596 -0.00010474 -5.12482e-05 -0.00015596 -9.43157e-05 -0.000221172 -0.00015596 -0.000271198 -0.00019931 -0.00015596 -9.43157e-05 -0.00019931 -0.00013089 -0.00042445 -0.000346257 -0.000475181 -0.000392125 -0.000346257 -0.000271198 -0.000392125 -0.000311563 -0.000475181 -0.000392125 -0.000511866 -0.000425508 -0.000392125 -0.000311563 -0.000425508 -0.000341333 -0.000271198 -0.00019931 -0.000311563 -0.000234213 -0.00019931 -0.00013089 -0.000234213 -0.00016042 -0.000311563 -0.000234213 -0.000341333 -0.00026014 -0.000234213 -0.00016042 -0.00026014 -0.000182516 0.000313976 0.000265455 0.000298771 0.000267934 0.000265455 0.000229199 0.000267934 0.000241263 0.000298771 0.000267934 0.000270207 0.000257549 0.000267934 0.000241263 0.000257549 0.00024299 0.000229199 0.000200521 0.000241263 0.000218887 0.000200521 0.0001773 0.000218887 0.000200324 0.000241263 0.000218887 0.00024299 0.000229152 0.000218887 0.000200324 0.000229152 0.000216969 0.000270207 0.000257549 0.00024942 0.000245425 0.000257549 0.00024299 0.000245425 0.000240317 0.00024942 0.000245425 0.000233668 0.00023494 0.000245425 0.000240317 0.00023494 0.000236624 0.00024299 0.000229152 0.000240317 0.00023466 0.000229152 0.000216969 0.00023466 0.000229259 0.000240317 0.00023466 0.000236624 0.000237957 0.00023466 0.000229259 0.000237957 0.000238986 0.000240869 0.000234563 0.000212418 0.000213761 0.000234563 0.000233668 0.000213761 0.000218361 0.000212418 0.000213761 0.000180377 0.000190461 0.000213761 0.000218361 0.000190461 0.000202232 0.000161541 0.000171055 0.000105734 0.000126312 0.000171055 0.000180377 0.000126312 0.000145863 0.000105734 0.000126312 5.05657e-05 8.1726e-05 0.000126312 0.000145863 8.1726e-05 0.000111202 0.000180377 0.000190461 0.000145863 0.000165285 0.000190461 0.000202232 0.000165285 0.00018496 0.000145863 0.000165285 0.000111202 0.00013957 0.000165285 0.00018496 0.00013957 0.000167174 0.000233668 0.00023494 0.000218361 0.000225232 0.00023494 0.000236624 0.000225232 0.000232851 0.000218361 0.000225232 0.000202232 0.000215321 0.000225232 0.000232851 0.000215321 0.000228915 0.000236624 0.000237957 0.000232851 0.000240343 0.000237957 0.000238986 0.000240343 0.000247334 0.000232851 0.000240343 0.000228915 0.000242268 0.000240343 0.000247334 0.000242268 0.000254916 0.000202232 0.000215321 0.00018496 0.000204878 0.000215321 0.000228915 0.000204878 0.000224663 0.00018496 0.000204878 0.000167174 0.000194084 0.000204878 0.000224663 0.000194084 0.000220156 0.000228915 0.000242268 0.000224663 0.000243839 0.000242268 0.000254916 0.000243839 0.000261985 0.000224663 0.000243839 0.000220156 0.000245115 0.000243839 0.000261985 0.000245115 0.000268627 0.0001773 0.000158417 0.000200324 0.000185098 0.000158417 0.000143228 0.000185098 0.000172823 0.000200324 0.000185098 0.000216969 0.000206712 0.000185098 0.000172823 0.000206712 0.000198386 0.000143228 0.000131316 0.000172823 0.000163197 0.000131316 0.00012236 0.000163197 0.000155963 0.000172823 0.000163197 0.000198386 0.000191906 0.000163197 0.000155963 0.000191906 0.00018716 0.000216969 0.000206712 0.000229259 0.000224573 0.000206712 0.000198386 0.000224573 0.000220819 0.000229259 0.000224573 0.000238986 0.00023994 0.000224573 0.000220819 0.00023994 0.000241009 0.000198386 0.000191906 0.000220819 0.000218073 0.000191906 0.00018716 0.000218073 0.000216348 0.000220819 0.000218073 0.000241009 0.000242313 0.000218073 0.000216348 0.000242313 0.000243924 0.00012236 0.000116062 0.000155963 0.000150891 0.000116062 0.000112084 0.000150891 0.000147753 0.000155963 0.000150891 0.00018716 0.000184031 0.000150891 0.000147753 0.000184031 0.000182395 0.000112084 0.000110027 0.000147753 0.000146307 0.000110027 0.000109482 0.000146307 0.00014621 0.000147753 0.000146307 0.000182395 0.000182095 0.000146307 0.00014621 0.000182095 0.000182849 0.00018716 0.000184031 0.000216348 0.000215626 0.000184031 0.000182395 0.000215626 0.000215868 0.000216348 0.000215626 0.000243924 0.000245884 0.000215626 0.000215868 0.000245884 0.000248211 0.000182395 0.000182095 0.000215868 0.000216982 0.000182095 0.000182849 0.000216982 0.000218744 0.000215868 0.000216982 0.000248211 0.000250871 0.000216982 0.000218744 0.000250871 0.000253737 0.000238986 0.00023994 0.000247334 0.000253762 0.00023994 0.000241009 0.000253762 0.000259674 0.000247334 0.000253762 0.000254916 0.00026662 0.000253762 0.000259674 0.00026662 0.000277288 0.000241009 0.000242313 0.000259674 0.000265142 0.000242313 0.000243924 0.000265142 0.000270236 0.000259674 0.000265142 0.000277288 0.000286912 0.000265142 0.000270236 0.000286912 0.000295524 0.000254916 0.00026662 0.000261985 0.000278796 0.00026662 0.000277288 0.000278796 0.00029409 0.000261985 0.000278796 0.000268627 0.000290374 0.000278796 0.00029409 0.000290374 0.000310124 0.000277288 0.000286912 0.00029409 0.000307786 0.000286912 0.000295524 0.000307786 0.000319868 0.00029409 0.000307786 0.000310124 0.000327749 0.000307786 0.000319868 0.000327749 0.00034319 0.000243924 0.000245884 0.000270236 0.000275019 0.000245884 0.000248211 0.000275019 0.000279536 0.000270236 0.000275019 0.000295524 0.000303173 0.000275019 0.000279536 0.000303173 0.000309916 0.000248211 0.000250871 0.000279536 0.000283806 0.000250871 0.000253737 0.000283806 0.000287807 0.000279536 0.000283806 0.000309916 0.000315811 0.000283806 0.000287807 0.000315811 0.000320919 0.000295524 0.000303173 0.000319868 0.000330359 0.000303173 0.000309916 0.000330359 0.000339311 0.000319868 0.000330359 0.00034319 0.00035644 0.000330359 0.000339311 0.00035644 0.000367531 0.000309916 0.000315811 0.000339311 0.000346799 0.000315811 0.000320919 0.000346799 0.000352941 0.000339311 0.000346799 0.000367531 0.000376543 0.000346799 0.000352941 0.000376543 0.000383617 5.05657e-05 8.1726e-05 -2.57479e-06 3.87621e-05 8.1726e-05 0.000111202 3.87621e-05 7.76335e-05 -2.57479e-06 3.87621e-05 -5.12482e-05 -9.14958e-07 3.87621e-05 7.76335e-05 -9.14958e-07 4.64839e-05 0.000111202 0.00013957 7.76335e-05 0.000114514 0.00013957 0.000167174 0.000114514 0.000149727 7.76335e-05 0.000114514 4.64839e-05 9.12019e-05 0.000114514 0.000149727 9.12019e-05 0.000133479 -5.12482e-05 -9.14958e-07 -9.43157e-05 -3.60973e-05 -9.14958e-07 4.64839e-05 -3.60973e-05 1.88286e-05 -9.43157e-05 -3.60973e-05 -0.00013089 -6.60293e-05 -3.60973e-05 1.88286e-05 -6.60293e-05 -4.6716e-06 4.64839e-05 9.12019e-05 1.88286e-05 7.0564e-05 9.12019e-05 0.000133479 7.0564e-05 0.000119202 1.88286e-05 7.0564e-05 -4.6716e-06 5.31709e-05 7.0564e-05 0.000119202 5.31709e-05 0.000107396 0.000167174 0.000194084 0.000149727 0.000183433 0.000194084 0.000220156 0.000183433 0.00021564 0.000149727 0.000183433 0.000133479 0.000173521 0.000183433 0.00021564 0.000173521 0.000211471 0.000220156 0.000245115 0.00021564 0.000246214 0.000245115 0.000268627 0.000246214 0.000274885 0.00021564 0.000246214 0.000211471 0.000247309 0.000246214 0.000274885 0.000247309 0.000280796 0.000133479 0.000173521 0.000119202 0.000164931 0.000173521 0.000211471 0.000164931 0.000208015 0.000119202 0.000164931 0.000107396 0.000158034 0.000164931 0.000208015 0.000158034 0.000205499 0.000211471 0.000247309 0.000208015 0.000248581 0.000247309 0.000280796 0.000248581 0.00028636 0.000208015 0.000248581 0.000205499 0.000250062 0.000248581 0.00028636 0.000250062 0.000291495 -0.00013089 -6.60293e-05 -0.00016042 -9.03056e-05 -6.60293e-05 -4.6716e-06 -9.03056e-05 -2.38463e-05 -0.00016042 -9.03056e-05 -0.000182516 -0.000108729 -9.03056e-05 -2.38463e-05 -0.000108729 -3.88087e-05 -4.6716e-06 5.31709e-05 -2.38463e-05 3.89777e-05 5.31709e-05 0.000107396 3.89777e-05 9.79548e-05 -2.38463e-05 3.89777e-05 -3.88087e-05 2.7477e-05 3.89777e-05 9.79548e-05 2.7477e-05 9.0074e-05 0.000107396 0.000158034 9.79548e-05 0.000152687 0.000158034 0.000205499 0.000152687 0.000203446 9.79548e-05 0.000152687 9.0074e-05 0.000148325 0.000152687 0.000203446 0.000148325 0.000201074 0.000205499 0.000250062 0.000203446 0.000251502 0.000250062 0.000291495 0.000251502 0.000295675 0.000203446 0.000251502 0.000201074 0.000250797 0.000251502 0.000295675 0.000250797 0.000298779 0.000268627 0.000290374 0.000274885 0.000301333 0.000290374 0.000310124 0.000301333 0.000325303 0.000274885 0.000301333 0.000280796 0.000311588 0.000301333 0.000325303 0.000311588 0.000339438 0.000310124 0.000327749 0.000325303 0.000346642 0.000327749 0.00034319 0.000346642 0.000365265 0.000325303 0.000346642 0.000339438 0.000364192 0.000346642 0.000365265 0.000364192 0.000385755 0.000280796 0.000311588 0.00028636 0.000320991 0.000311588 0.000339438 0.000320991 0.000352243 0.00028636 0.000320991 0.000291495 0.000329218 0.000320991 0.000352243 0.000329218 0.000363354 0.000339438 0.000364192 0.000352243 0.000380042 0.000364192 0.000385755 0.000380042 0.000404241 0.000352243 0.000380042 0.000363354 0.000393773 0.000380042 0.000404241 0.000393773 0.000420306 0.00034319 0.00035644 0.000365265 0.000381133 0.00035644 0.000367531 0.000381133 0.00039425 0.000365265 0.000381133 0.000385755 0.000404045 0.000381133 0.00039425 0.000404045 0.000419029 0.000367531 0.000376543 0.00039425 0.000404679 0.000376543 0.000383617 0.000404679 0.000412564 0.00039425 0.000404679 0.000419029 0.000430739 0.000404679 0.000412564 0.000430739 0.000439303 0.000385755 0.000404045 0.000404241 0.000424711 0.000404045 0.000419029 0.000424711 0.000441357 0.000404241 0.000424711 0.000420306 0.000442642 0.000424711 0.000441357 0.000442642 0.000460693 0.000419029 0.000430739 0.000441357 0.000454185 0.000430739 0.000439303 0.000454185 0.000463296 0.000441357 0.000454185 0.000460693 0.000474449 0.000454185 0.000463296 0.000474449 0.000483978 0.000291495 0.000329218 0.000295675 0.000335898 0.000329218 0.000363354 0.000335898 0.000372216 0.000295675 0.000335898 0.000298779 0.000339343 0.000335898 0.000372216 0.000339343 0.000379612 0.000363354 0.000393773 0.000372216 0.000405166 0.000393773 0.000420306 0.000405166 0.000433568 0.000372216 0.000405166 0.000379612 0.000414156 0.000405166 0.000433568 0.000414156 0.000443678 0.000298779 0.000339343 0.000296953 0.000346538 0.000339343 0.000379612 0.000346538 0.000386295 0.000296953 0.000346538 0.000321556 0.000355994 0.000346538 0.000386295 0.000355994 0.000389635 0.000379612 0.000414156 0.000386295 0.00042042 0.000414156 0.000443678 0.00042042 0.000450168 0.000386295 0.00042042 0.000389635 0.000422834 0.00042042 0.000450168 0.000422834 0.000452436 0.000420306 0.000442642 0.000433568 0.000457358 0.000442642 0.000460693 0.000457358 0.000476498 0.000433568 0.000457358 0.000443678 0.000468392 0.000457358 0.000476498 0.000468392 0.000488263 0.000460693 0.000474449 0.000476498 0.000490968 0.000474449 0.000483978 0.000490968 0.000500794 0.000476498 0.000490968 0.000488263 0.000503222 0.000490968 0.000500794 0.000503222 0.000513238 0.000443678 0.000468392 0.000450168 0.000475282 0.000468392 0.000488263 0.000475282 0.00049554 0.000450168 0.000475282 0.000452436 0.000477635 0.000475282 0.00049554 0.000477635 0.000498006 0.000488263 0.000503222 0.00049554 0.000510774 0.000503222 0.000513238 0.000510774 0.000520891 0.00049554 0.000510774 0.000498006 0.000513327 0.000510774 0.000520891 0.000513327 0.000523474 -0.000595139 -0.000522478 -0.000588501 -0.000516355 -0.000522478 -0.000452228 -0.000516355 -0.000446659 -0.000588501 -0.000516355 -0.00056867 -0.000498083 -0.000516355 -0.000446659 -0.000498083 -0.00043006 -0.000452228 -0.000385188 -0.000446659 -0.000380195 -0.000385188 -0.000321831 -0.000380195 -0.00031742 -0.000446659 -0.000380195 -0.00043006 -0.000365327 -0.000380195 -0.00031742 -0.000365327 -0.000304301 -0.00056867 -0.000498083 -0.000535903 -0.000467959 -0.000498083 -0.00043006 -0.000467959 -0.000402749 -0.000535903 -0.000467959 -0.000490622 -0.000426471 -0.000467959 -0.000402749 -0.000426471 -0.000365253 -0.00043006 -0.000365327 -0.000402749 -0.000340915 -0.000365327 -0.000304301 -0.000340915 -0.000282804 -0.000402749 -0.000340915 -0.000365253 -0.000307501 -0.000340915 -0.000282804 -0.000307501 -0.000253478 -0.000490622 -0.000426471 -0.000433422 -0.000374305 -0.000426471 -0.000365253 -0.000374305 -0.000318295 -0.000433422 -0.000374305 -0.000365119 -0.000312171 -0.000374305 -0.000318295 -0.000312171 -0.000262843 -0.000365253 -0.000307501 -0.000318295 -0.000265851 -0.000307501 -0.000253478 -0.000265851 -0.000217095 -0.000318295 -0.000265851 -0.000262843 -0.000217023 -0.000265851 -0.000217095 -0.000217023 -0.000174654 -0.000262843 -0.000217023 -0.000200565 -0.000162301 -0.000217023 -0.000174654 -0.000162301 -0.000127361 -0.000200565 -0.000162301 -0.000132301 -0.000103021 -0.000162301 -0.000127361 -0.000103021 -7.66e-05 -0.000132301 -0.000103021 -6.02523e-05 -4.10693e-05 -0.000103021 -7.66e-05 -4.10693e-05 -2.40573e-05 -6.02523e-05 -4.10693e-05 1.30482e-05 2.1428e-05 -4.10693e-05 -2.40573e-05 2.1428e-05 2.82392e-05 -0.000321831 -0.000262372 -0.00031742 -0.000258539 -0.000262372 -0.000206877 -0.000258539 -0.000203605 -0.00031742 -0.000258539 -0.000304301 -0.000247148 -0.000258539 -0.000203605 -0.000247148 -0.000193894 -0.000206877 -0.000155353 -0.000203605 -0.000152619 -0.000155353 -0.000107752 -0.000152619 -0.000105526 -0.000203605 -0.000152619 -0.000193894 -0.000144514 -0.000152619 -0.000105526 -0.000144514 -9.89351e-05 -0.000304301 -0.000247148 -0.000282804 -0.000228525 -0.000247148 -0.000193894 -0.000228525 -0.000178053 -0.000282804 -0.000228525 -0.000253478 -0.000203207 -0.000228525 -0.000178053 -0.000203207 -0.000156591 -0.000193894 -0.000144514 -0.000178053 -0.000131324 -0.000144514 -9.89351e-05 -0.000131324 -8.82367e-05 -0.000178053 -0.000131324 -0.000156591 -0.000113517 -0.000131324 -8.82367e-05 -0.000113517 -7.3847e-05 -0.000107752 -6.39697e-05 -0.000105526 -6.22177e-05 -6.39697e-05 -2.38762e-05 -6.22177e-05 -2.25619e-05 -0.000105526 -6.22177e-05 -9.89351e-05 -5.70374e-05 -6.22177e-05 -2.25619e-05 -5.70374e-05 -1.8683e-05 -2.38762e-05 1.26523e-05 -2.25619e-05 1.35655e-05 1.26523e-05 4.57179e-05 1.35655e-05 4.62671e-05 -2.25619e-05 1.35655e-05 -1.8683e-05 1.62539e-05 1.35655e-05 4.62671e-05 1.62539e-05 4.78762e-05 -9.89351e-05 -5.70374e-05 -8.82367e-05 -4.86521e-05 -5.70374e-05 -1.8683e-05 -4.86521e-05 -1.24264e-05 -8.82367e-05 -4.86521e-05 -7.3847e-05 -3.74218e-05 -4.86521e-05 -1.24264e-05 -3.74218e-05 -4.09309e-06 -1.8683e-05 1.62539e-05 -1.24264e-05 2.05673e-05 1.62539e-05 4.78762e-05 2.05673e-05 5.0432e-05 -1.24264e-05 2.05673e-05 -4.09309e-06 2.62656e-05 2.05673e-05 5.0432e-05 2.62656e-05 5.37542e-05 -0.000253478 -0.000203207 -0.000217095 -0.000171932 -0.000203207 -0.000156591 -0.000171932 -0.000130202 -0.000217095 -0.000171932 -0.000174654 -0.000135643 -0.000171932 -0.000130202 -0.000135643 -9.97503e-05 -0.000156591 -0.000113517 -0.000130202 -9.17251e-05 -0.000113517 -7.3847e-05 -9.17251e-05 -5.63252e-05 -0.000130202 -9.17251e-05 -9.97503e-05 -6.67279e-05 -9.17251e-05 -5.63252e-05 -6.67279e-05 -3.63606e-05 -0.000174654 -0.000135643 -0.000127361 -9.54618e-05 -0.000135643 -9.97503e-05 -9.54618e-05 -6.62676e-05 -0.000127361 -9.54618e-05 -7.66e-05 -5.27142e-05 -9.54618e-05 -6.62676e-05 -5.27142e-05 -3.0966e-05 -9.97503e-05 -6.67279e-05 -6.62676e-05 -3.9454e-05 -6.67279e-05 -3.63606e-05 -3.9454e-05 -1.47619e-05 -6.62676e-05 -3.9454e-05 -3.0966e-05 -1.09736e-05 -3.9454e-05 -1.47619e-05 -1.09736e-05 7.55433e-06 -7.3847e-05 -3.74218e-05 -5.63252e-05 -2.38284e-05 -3.74218e-05 -4.09309e-06 -2.38284e-05 5.91637e-06 -5.63252e-05 -2.38284e-05 -3.63606e-05 -8.46122e-06 -2.38284e-05 5.91637e-06 -8.46122e-06 1.7117e-05 -4.09309e-06 2.62656e-05 5.91637e-06 3.30306e-05 2.62656e-05 5.37542e-05 3.30306e-05 5.76054e-05 5.91637e-06 3.30306e-05 1.7117e-05 4.04801e-05 3.30306e-05 5.76054e-05 4.04801e-05 6.17025e-05 -3.63606e-05 -8.46122e-06 -1.47619e-05 7.99829e-06 -8.46122e-06 1.7117e-05 7.99829e-06 2.89535e-05 -1.47619e-05 7.99829e-06 7.55433e-06 2.47853e-05 7.99829e-06 2.89535e-05 2.47853e-05 4.08127e-05 1.7117e-05 4.04801e-05 2.89535e-05 4.81819e-05 4.04801e-05 6.17025e-05 4.81819e-05 6.57285e-05 2.89535e-05 4.81819e-05 4.08127e-05 5.56663e-05 4.81819e-05 6.57285e-05 5.56663e-05 6.93415e-05 4.57179e-05 7.54029e-05 4.62671e-05 7.56255e-05 7.54029e-05 0.000101761 7.56255e-05 0.000101695 4.62671e-05 7.56255e-05 4.78762e-05 7.62668e-05 7.56255e-05 0.000101695 7.62668e-05 0.000101481 0.000101761 0.000124813 0.000101695 0.000124497 0.000124813 0.000144566 0.000124497 0.000144039 0.000101695 0.000124497 0.000101481 0.000123542 0.000124497 0.000144039 0.000123542 0.000142462 4.78762e-05 7.62668e-05 5.0432e-05 7.72496e-05 7.62668e-05 0.000101481 7.72496e-05 0.000101075 5.0432e-05 7.72496e-05 5.37542e-05 7.84508e-05 7.72496e-05 0.000101075 7.84508e-05 0.000100409 0.000101481 0.000123542 0.000101075 0.000121936 0.000123542 0.000142462 0.000121936 0.000139847 0.000101075 0.000121936 0.000100409 0.000119656 0.000121936 0.000139847 0.000119656 0.000136212 0.000144566 0.000161033 0.000144039 0.000160336 0.000161033 0.000174251 0.000160336 0.000173424 0.000144039 0.000160336 0.000142462 0.000158256 0.000160336 0.000173424 0.000158256 0.00017096 0.000174251 0.000184309 0.000173424 0.000183392 0.000184309 0.000191376 0.000183392 0.000190405 0.000173424 0.000183392 0.00017096 0.000180661 0.000183392 0.000190405 0.000180661 0.000187516 0.000142462 0.000158256 0.000139847 0.000154825 0.000158256 0.00017096 0.000154825 0.000166907 0.000139847 0.000154825 0.000136212 0.000150094 0.000154825 0.000166907 0.000150094 0.00016134 0.00017096 0.000180661 0.000166907 0.000176174 0.000180661 0.000187516 0.000176174 0.00018277 0.000166907 0.000176174 0.00016134 0.000170021 0.000176174 0.00018277 0.000170021 0.000176263 5.37542e-05 7.84508e-05 5.76054e-05 7.97096e-05 7.84508e-05 0.000100409 7.97096e-05 9.93903e-05 5.76054e-05 7.97096e-05 6.17025e-05 8.08357e-05 7.97096e-05 9.93903e-05 8.08357e-05 9.79132e-05 0.000100409 0.000119656 9.93903e-05 0.000116674 0.000119656 0.000136212 0.000116674 0.000131581 9.93903e-05 0.000116674 9.79132e-05 0.000112956 0.000116674 0.000131581 0.000112956 0.000125982 6.17025e-05 8.08357e-05 6.57285e-05 8.16163e-05 8.08357e-05 9.79132e-05 8.16163e-05 9.58569e-05 6.57285e-05 8.16163e-05 6.93415e-05 8.18201e-05 8.16163e-05 9.58569e-05 8.18201e-05 9.30869e-05 9.79132e-05 0.000112956 9.58569e-05 0.000108461 0.000112956 0.000125982 0.000108461 0.000119441 9.58569e-05 0.000108461 9.30869e-05 0.000103137 0.000108461 0.000119441 0.000103137 0.000111977 0.000136212 0.000150094 0.000131581 0.000144131 0.000150094 0.00016134 0.000144131 0.000154357 0.000131581 0.000144131 0.000125982 0.00013701 0.000144131 0.000154357 0.00013701 0.000146071 0.00016134 0.000170021 0.000154357 0.000162321 0.000170021 0.000176263 0.000162321 0.000168125 0.000154357 0.000162321 0.000146071 0.000153209 0.000162321 0.000168125 0.000153209 0.000158502 0.000125982 0.00013701 0.000119441 0.000128814 0.00013701 0.000146071 0.000128814 0.000136602 0.000119441 0.000128814 0.000111977 0.000119616 0.000128814 0.000136602 0.000119616 0.000126067 0.000146071 0.000153209 0.000136602 0.000142833 0.000153209 0.000158502 0.000142833 0.000147552 0.000136602 0.000142833 0.000126067 0.000131338 0.000142833 0.000147552 0.000131338 0.000135438 -7.66e-05 -5.27142e-05 -2.40573e-05 -8.93611e-06 -5.27142e-05 -3.0966e-05 -8.93611e-06 4.75487e-06 -2.40573e-05 -8.93611e-06 2.82392e-05 3.4034e-05 -8.93611e-06 4.75487e-06 3.4034e-05 3.94604e-05 -3.0966e-05 -1.09736e-05 4.75487e-06 1.75154e-05 -1.09736e-05 7.55433e-06 1.75154e-05 2.95621e-05 4.75487e-06 1.75154e-05 3.94604e-05 4.46325e-05 1.75154e-05 2.95621e-05 4.46325e-05 5.01301e-05 3.94604e-05 4.46325e-05 7.0805e-05 6.87821e-05 4.46325e-05 5.01301e-05 6.87821e-05 6.80862e-05 7.0805e-05 6.87821e-05 9.73725e-05 8.85897e-05 6.87821e-05 6.80862e-05 8.85897e-05 8.23693e-05 7.55433e-06 2.47853e-05 2.95621e-05 4.10636e-05 2.47853e-05 4.08127e-05 4.10636e-05 5.20391e-05 2.95621e-05 4.106