# vtk DataFile Version 3.0
#This file was generated by the deal.II library on 2022/11/17 at 0:18:23
ASCII
DATASET UNSTRUCTURED_GRID

POINTS 4528 double
0 0.5 0
0.03125 0.5 0
0 0.53125 0
0.03125 0.53125 0
0.03125 0.5 0
0.0625 0.5 0
0.03125 0.53125 0
0.0625 0.53125 0
0 0.53125 0
0.03125 0.53125 0
0 0.5625 0
0.03125 0.5625 0
0.03125 0.53125 0
0.0625 0.53125 0
0.03125 0.5625 0
0.0625 0.5625 0
0.0625 0.5 0
0.09375 0.5 0
0.0625 0.53125 0
0.09375 0.53125 0
0.09375 0.5 0
0.125 0.5 0
0.09375 0.53125 0
0.125 0.53125 0
0.0625 0.53125 0
0.09375 0.53125 0
0.0625 0.5625 0
0.09375 0.5625 0
0.09375 0.53125 0
0.125 0.53125 0
0.09375 0.5625 0
0.125 0.5625 0
0 0.5625 0
0.03125 0.5625 0
0 0.59375 0
0.03125 0.59375 0
0.03125 0.5625 0
0.0625 0.5625 0
0.03125 0.59375 0
0.0625 0.59375 0
0 0.59375 0
0.03125 0.59375 0
0 0.625 0
0.03125 0.625 0
0.03125 0.59375 0
0.0625 0.59375 0
0.03125 0.625 0
0.0625 0.625 0
0.0625 0.5625 0
0.09375 0.5625 0
0.0625 0.59375 0
0.09375 0.59375 0
0.09375 0.5625 0
0.125 0.5625 0
0.09375 0.59375 0
0.125 0.59375 0
0.0625 0.59375 0
0.09375 0.59375 0
0.0625 0.625 0
0.09375 0.625 0
0.09375 0.59375 0
0.125 0.59375 0
0.09375 0.625 0
0.125 0.625 0
0.125 0.5 0
0.15625 0.5 0
0.125 0.53125 0
0.15625 0.53125 0
0.15625 0.5 0
0.1875 0.5 0
0.15625 0.53125 0
0.1875 0.53125 0
0.125 0.53125 0
0.15625 0.53125 0
0.125 0.5625 0
0.15625 0.5625 0
0.15625 0.53125 0
0.1875 0.53125 0
0.15625 0.5625 0
0.1875 0.5625 0
0.1875 0.5 0
0.21875 0.5 0
0.1875 0.53125 0
0.21875 0.53125 0
0.21875 0.5 0
0.25 0.5 0
0.21875 0.53125 0
0.25 0.53125 0
0.1875 0.53125 0
0.21875 0.53125 0
0.1875 0.5625 0
0.21875 0.5625 0
0.21875 0.53125 0
0.25 0.53125 0
0.21875 0.5625 0
0.25 0.5625 0
0.125 0.5625 0
0.15625 0.5625 0
0.125 0.59375 0
0.15625 0.59375 0
0.15625 0.5625 0
0.1875 0.5625 0
0.15625 0.59375 0
0.1875 0.59375 0
0.125 0.59375 0
0.15625 0.59375 0
0.125 0.625 0
0.15625 0.625 0
0.15625 0.59375 0
0.1875 0.59375 0
0.15625 0.625 0
0.1875 0.625 0
0.1875 0.5625 0
0.21875 0.5625 0
0.1875 0.59375 0
0.21875 0.59375 0
0.21875 0.5625 0
0.25 0.5625 0
0.21875 0.59375 0
0.25 0.59375 0
0.1875 0.59375 0
0.21875 0.59375 0
0.1875 0.625 0
0.21875 0.625 0
0.21875 0.59375 0
0.25 0.59375 0
0.21875 0.625 0
0.25 0.625 0
0 0.625 0
0.03125 0.625 0
0 0.65625 0
0.03125 0.65625 0
0.03125 0.625 0
0.0625 0.625 0
0.03125 0.65625 0
0.0625 0.65625 0
0 0.65625 0
0.03125 0.65625 0
0 0.6875 0
0.03125 0.6875 0
0.03125 0.65625 0
0.0625 0.65625 0
0.03125 0.6875 0
0.0625 0.6875 0
0.0625 0.625 0
0.09375 0.625 0
0.0625 0.65625 0
0.09375 0.65625 0
0.09375 0.625 0
0.125 0.625 0
0.09375 0.65625 0
0.125 0.65625 0
0.0625 0.65625 0
0.09375 0.65625 0
0.0625 0.6875 0
0.09375 0.6875 0
0.09375 0.65625 0
0.125 0.65625 0
0.09375 0.6875 0
0.125 0.6875 0
0 0.6875 0
0.03125 0.6875 0
0 0.71875 0
0.03125 0.71875 0
0.03125 0.6875 0
0.0625 0.6875 0
0.03125 0.71875 0
0.0625 0.71875 0
0 0.71875 0
0.03125 0.71875 0
0 0.75 0
0.03125 0.75 0
0.03125 0.71875 0
0.0625 0.71875 0
0.03125 0.75 0
0.0625 0.75 0
0.0625 0.6875 0
0.09375 0.6875 0
0.0625 0.71875 0
0.09375 0.71875 0
0.09375 0.6875 0
0.125 0.6875 0
0.09375 0.71875 0
0.125 0.71875 0
0.0625 0.71875 0
0.09375 0.71875 0
0.0625 0.75 0
0.09375 0.75 0
0.09375 0.71875 0
0.125 0.71875 0
0.09375 0.75 0
0.125 0.75 0
0.125 0.625 0
0.15625 0.625 0
0.125 0.65625 0
0.15625 0.65625 0
0.15625 0.625 0
0.1875 0.625 0
0.15625 0.65625 0
0.1875 0.65625 0
0.125 0.65625 0
0.15625 0.65625 0
0.125 0.6875 0
0.15625 0.6875 0
0.15625 0.65625 0
0.1875 0.65625 0
0.15625 0.6875 0
0.1875 0.6875 0
0.1875 0.625 0
0.21875 0.625 0
0.1875 0.65625 0
0.21875 0.65625 0
0.21875 0.625 0
0.25 0.625 0
0.21875 0.65625 0
0.25 0.65625 0
0.1875 0.65625 0
0.21875 0.65625 0
0.1875 0.6875 0
0.21875 0.6875 0
0.21875 0.65625 0
0.25 0.65625 0
0.21875 0.6875 0
0.25 0.6875 0
0.125 0.6875 0
0.15625 0.6875 0
0.125 0.71875 0
0.15625 0.71875 0
0.15625 0.6875 0
0.1875 0.6875 0
0.15625 0.71875 0
0.1875 0.71875 0
0.125 0.71875 0
0.15625 0.71875 0
0.125 0.75 0
0.15625 0.75 0
0.15625 0.71875 0
0.1875 0.71875 0
0.15625 0.75 0
0.1875 0.75 0
0.1875 0.6875 0
0.21875 0.6875 0
0.1875 0.71875 0
0.21875 0.71875 0
0.21875 0.6875 0
0.25 0.6875 0
0.21875 0.71875 0
0.25 0.71875 0
0.1875 0.71875 0
0.21875 0.71875 0
0.1875 0.75 0
0.21875 0.75 0
0.21875 0.71875 0
0.25 0.71875 0
0.21875 0.75 0
0.25 0.75 0
0.25 0.5 0
0.28125 0.5 0
0.25 0.53125 0
0.28125 0.53125 0
0.28125 0.5 0
0.3125 0.5 0
0.28125 0.53125 0
0.3125 0.53125 0
0.25 0.53125 0
0.28125 0.53125 0
0.25 0.5625 0
0.28125 0.5625 0
0.28125 0.53125 0
0.3125 0.53125 0
0.28125 0.5625 0
0.3125 0.5625 0
0.3125 0.5 0
0.34375 0.5 0
0.3125 0.53125 0
0.34375 0.53125 0
0.34375 0.5 0
0.375 0.5 0
0.34375 0.53125 0
0.375 0.53125 0
0.3125 0.53125 0
0.34375 0.53125 0
0.3125 0.5625 0
0.34375 0.5625 0
0.34375 0.53125 0
0.375 0.53125 0
0.34375 0.5625 0
0.375 0.5625 0
0.25 0.5625 0
0.28125 0.5625 0
0.25 0.59375 0
0.28125 0.59375 0
0.28125 0.5625 0
0.3125 0.5625 0
0.28125 0.59375 0
0.3125 0.59375 0
0.25 0.59375 0
0.28125 0.59375 0
0.25 0.625 0
0.28125 0.625 0
0.28125 0.59375 0
0.3125 0.59375 0
0.28125 0.625 0
0.3125 0.625 0
0.3125 0.5625 0
0.34375 0.5625 0
0.3125 0.59375 0
0.34375 0.59375 0
0.34375 0.5625 0
0.375 0.5625 0
0.34375 0.59375 0
0.375 0.59375 0
0.3125 0.59375 0
0.34375 0.59375 0
0.3125 0.625 0
0.34375 0.625 0
0.34375 0.59375 0
0.375 0.59375 0
0.34375 0.625 0
0.375 0.625 0
0.375 0.5625 0
0.40625 0.5625 0
0.375 0.59375 0
0.40625 0.59375 0
0.40625 0.5625 0
0.4375 0.5625 0
0.40625 0.59375 0
0.4375 0.59375 0
0.375 0.59375 0
0.40625 0.59375 0
0.375 0.625 0
0.40625 0.625 0
0.40625 0.59375 0
0.4375 0.59375 0
0.40625 0.625 0
0.4375 0.625 0
0.25 0.625 0
0.28125 0.625 0
0.25 0.65625 0
0.28125 0.65625 0
0.28125 0.625 0
0.3125 0.625 0
0.28125 0.65625 0
0.3125 0.65625 0
0.25 0.65625 0
0.28125 0.65625 0
0.25 0.6875 0
0.28125 0.6875 0
0.28125 0.65625 0
0.3125 0.65625 0
0.28125 0.6875 0
0.3125 0.6875 0
0.3125 0.625 0
0.34375 0.625 0
0.3125 0.65625 0
0.34375 0.65625 0
0.34375 0.625 0
0.375 0.625 0
0.34375 0.65625 0
0.375 0.65625 0
0.3125 0.65625 0
0.34375 0.65625 0
0.3125 0.6875 0
0.34375 0.6875 0
0.34375 0.65625 0
0.375 0.65625 0
0.34375 0.6875 0
0.375 0.6875 0
0.25 0.6875 0
0.28125 0.6875 0
0.25 0.71875 0
0.28125 0.71875 0
0.28125 0.6875 0
0.3125 0.6875 0
0.28125 0.71875 0
0.3125 0.71875 0
0.25 0.71875 0
0.28125 0.71875 0
0.25 0.75 0
0.28125 0.75 0
0.28125 0.71875 0
0.3125 0.71875 0
0.28125 0.75 0
0.3125 0.75 0
0.3125 0.6875 0
0.34375 0.6875 0
0.3125 0.71875 0
0.34375 0.71875 0
0.34375 0.6875 0
0.375 0.6875 0
0.34375 0.71875 0
0.375 0.71875 0
0.3125 0.71875 0
0.34375 0.71875 0
0.3125 0.75 0
0.34375 0.75 0
0.34375 0.71875 0
0.375 0.71875 0
0.34375 0.75 0
0.375 0.75 0
0.375 0.625 0
0.40625 0.625 0
0.375 0.65625 0
0.40625 0.65625 0
0.40625 0.625 0
0.4375 0.625 0
0.40625 0.65625 0
0.4375 0.65625 0
0.375 0.65625 0
0.40625 0.65625 0
0.375 0.6875 0
0.40625 0.6875 0
0.40625 0.65625 0
0.4375 0.65625 0
0.40625 0.6875 0
0.4375 0.6875 0
0.4375 0.625 0
0.46875 0.625 0
0.4375 0.65625 0
0.46875 0.65625 0
0.46875 0.625 0
0.5 0.625 0
0.46875 0.65625 0
0.5 0.65625 0
0.4375 0.65625 0
0.46875 0.65625 0
0.4375 0.6875 0
0.46875 0.6875 0
0.46875 0.65625 0
0.5 0.65625 0
0.46875 0.6875 0
0.5 0.6875 0
0.375 0.6875 0
0.40625 0.6875 0
0.375 0.71875 0
0.40625 0.71875 0
0.40625 0.6875 0
0.4375 0.6875 0
0.40625 0.71875 0
0.4375 0.71875 0
0.375 0.71875 0
0.40625 0.71875 0
0.375 0.75 0
0.40625 0.75 0
0.40625 0.71875 0
0.4375 0.71875 0
0.40625 0.75 0
0.4375 0.75 0
0.4375 0.6875 0
0.46875 0.6875 0
0.4375 0.71875 0
0.46875 0.71875 0
0.46875 0.6875 0
0.5 0.6875 0
0.46875 0.71875 0
0.5 0.71875 0
0.4375 0.71875 0
0.46875 0.71875 0
0.4375 0.75 0
0.46875 0.75 0
0.46875 0.71875 0
0.5 0.71875 0
0.46875 0.75 0
0.5 0.75 0
0 0.75 0
0.03125 0.75 0
0 0.78125 0
0.03125 0.78125 0
0.03125 0.75 0
0.0625 0.75 0
0.03125 0.78125 0
0.0625 0.78125 0
0 0.78125 0
0.03125 0.78125 0
0 0.8125 0
0.03125 0.8125 0
0.03125 0.78125 0
0.0625 0.78125 0
0.03125 0.8125 0
0.0625 0.8125 0
0.0625 0.75 0
0.09375 0.75 0
0.0625 0.78125 0
0.09375 0.78125 0
0.09375 0.75 0
0.125 0.75 0
0.09375 0.78125 0
0.125 0.78125 0
0.0625 0.78125 0
0.09375 0.78125 0
0.0625 0.8125 0
0.09375 0.8125 0
0.09375 0.78125 0
0.125 0.78125 0
0.09375 0.8125 0
0.125 0.8125 0
0 0.8125 0
0.03125 0.8125 0
0 0.84375 0
0.03125 0.84375 0
0.03125 0.8125 0
0.0625 0.8125 0
0.03125 0.84375 0
0.0625 0.84375 0
0 0.84375 0
0.03125 0.84375 0
0 0.875 0
0.03125 0.875 0
0.03125 0.84375 0
0.0625 0.84375 0
0.03125 0.875 0
0.0625 0.875 0
0.0625 0.8125 0
0.09375 0.8125 0
0.0625 0.84375 0
0.09375 0.84375 0
0.09375 0.8125 0
0.125 0.8125 0
0.09375 0.84375 0
0.125 0.84375 0
0.0625 0.84375 0
0.09375 0.84375 0
0.0625 0.875 0
0.09375 0.875 0
0.09375 0.84375 0
0.125 0.84375 0
0.09375 0.875 0
0.125 0.875 0
0.125 0.75 0
0.15625 0.75 0
0.125 0.78125 0
0.15625 0.78125 0
0.15625 0.75 0
0.1875 0.75 0
0.15625 0.78125 0
0.1875 0.78125 0
0.125 0.78125 0
0.15625 0.78125 0
0.125 0.8125 0
0.15625 0.8125 0
0.15625 0.78125 0
0.1875 0.78125 0
0.15625 0.8125 0
0.1875 0.8125 0
0.1875 0.75 0
0.21875 0.75 0
0.1875 0.78125 0
0.21875 0.78125 0
0.21875 0.75 0
0.25 0.75 0
0.21875 0.78125 0
0.25 0.78125 0
0.1875 0.78125 0
0.21875 0.78125 0
0.1875 0.8125 0
0.21875 0.8125 0
0.21875 0.78125 0
0.25 0.78125 0
0.21875 0.8125 0
0.25 0.8125 0
0.125 0.8125 0
0.15625 0.8125 0
0.125 0.84375 0
0.15625 0.84375 0
0.15625 0.8125 0
0.1875 0.8125 0
0.15625 0.84375 0
0.1875 0.84375 0
0.125 0.84375 0
0.15625 0.84375 0
0.125 0.875 0
0.15625 0.875 0
0.15625 0.84375 0
0.1875 0.84375 0
0.15625 0.875 0
0.1875 0.875 0
0.1875 0.8125 0
0.21875 0.8125 0
0.1875 0.84375 0
0.21875 0.84375 0
0.21875 0.8125 0
0.25 0.8125 0
0.21875 0.84375 0
0.25 0.84375 0
0.1875 0.84375 0
0.21875 0.84375 0
0.1875 0.875 0
0.21875 0.875 0
0.21875 0.84375 0
0.25 0.84375 0
0.21875 0.875 0
0.25 0.875 0
0 0.875 0
0.03125 0.875 0
0 0.90625 0
0.03125 0.90625 0
0.03125 0.875 0
0.0625 0.875 0
0.03125 0.90625 0
0.0625 0.90625 0
0 0.90625 0
0.03125 0.90625 0
0 0.9375 0
0.03125 0.9375 0
0.03125 0.90625 0
0.0625 0.90625 0
0.03125 0.9375 0
0.0625 0.9375 0
0.0625 0.875 0
0.09375 0.875 0
0.0625 0.90625 0
0.09375 0.90625 0
[...]
POINT_DATA 4528
SCALARS x_dis double 1
LOOKUP_TABLE default
0.000848875 0.000807478 0.00081978 0.000777835 0.000807478 0.000764086 0.000777835 0.00073419 0.00081978 0.000777835 0.000781506 0.000738518 0.000777835 0.00073419 0.000738518 0.000694213 0.000764086 0.000720253 0.00073419 0.000690386 0.000720253 0.000677163 0.000690386 0.000647598 0.00073419 0.000690386 0.000694213 0.000650019 0.000690386 0.000647598 0.000650019 0.000607012 0.000781506 0.000738518 0.000734871 0.000690391 0.000738518 0.000694213 0.000690391 0.000645066 0.000734871 0.000690391 0.000681112 0.000634768 0.000690391 0.000645066 0.000634768 0.000588138 0.000694213 0.000650019 0.000645066 0.000600124 0.000650019 0.000607012 0.000600124 0.000556481 0.000645066 0.000600124 0.000588138 0.00054219 0.000600124 0.000556481 0.00054219 0.000497639 0.000677163 0.000635768 0.000647598 0.000606754 0.000635768 0.000596869 0.000606754 0.000568624 0.000647598 0.000606754 0.000607012 0.000566025 0.000606754 0.000568624 0.000566025 0.000527709 0.000596869 0.000561184 0.000568624 0.000533868 0.000561184 0.00052939 0.000533868 0.000503069 0.000568624 0.000533868 0.000527709 0.000492561 0.000533868 0.000503069 0.000492561 0.000460932 0.000607012 0.000566025 0.000556481 0.000514818 0.000566025 0.000527709 0.000514818 0.000475621 0.000556481 0.000514818 0.000497639 0.000454993 0.000514818 0.000475621 0.000454993 0.000414561 0.000527709 0.000492561 0.000475621 0.000439184 0.000492561 0.000460932 0.000439184 0.000405594 0.000475621 0.000439184 0.000414561 0.000376455 0.000439184 0.000405594 0.000376455 0.000340559 0.000681112 0.000634768 0.000621815 0.000573332 0.000634768 0.000588138 0.000573332 0.000525198 0.000621815 0.000573332 0.000558813 0.000508022 0.000573332 0.000525198 0.000508022 0.000458275 0.000588138 0.00054219 0.000525198 0.000478093 0.00054219 0.000497639 0.000478093 0.00043252 0.000525198 0.000478093 0.000458275 0.000409967 0.000478093 0.00043252 0.000409967 0.000363387 0.000558813 0.000508022 0.000494087 0.000440923 0.000508022 0.000458275 0.000440923 0.00038954 0.000494087 0.000440923 0.000429668 0.000374163 0.000440923 0.00038954 0.000374163 0.000321192 0.000458275 0.000409967 0.00038954 0.000340064 0.000409967 0.000363387 0.000340064 0.00029259 0.00038954 0.000340064 0.000321192 0.000270641 0.000340064 0.00029259 0.000270641 0.000222437 0.000497639 0.000454993 0.00043252 0.000388806 0.000454993 0.000414561 0.000388806 0.000347111 0.00043252 0.000388806 0.000363387 0.000318705 0.000388806 0.000347111 0.000318705 0.000275953 0.000414561 0.000376455 0.000347111 0.000307407 0.000376455 0.000340559 0.000307407 0.000269464 0.000347111 0.000307407 0.000275953 0.000235019 0.000307407 0.000269464 0.000235019 0.000195637 0.000363387 0.000318705 0.00029259 0.000247148 0.000318705 0.000275953 0.000247148 0.000203678 0.00029259 0.000247148 0.000222437 0.000176492 0.000247148 0.000203678 0.000176492 0.000132674 0.000275953 0.000235019 0.000203678 0.000162019 0.000235019 0.000195637 0.000162019 0.000121915 0.000203678 0.000162019 0.000132674 9.07987e-05 0.000162019 0.000121915 9.07987e-05 5.0634e-05 0.00052939 0.000502181 0.000503069 0.00047676 0.000502181 0.00048033 0.00047676 0.000455442 0.000503069 0.00047676 0.000460932 0.000432996 0.00047676 0.000455442 0.000432996 0.000408681 0.00048033 0.000464817 0.000455442 0.000439586 0.000464817 0.000457026 0.000439586 0.000429613 0.000455442 0.000439586 0.000408681 0.000387509 0.000439586 0.000429613 0.000387509 0.000368225 0.000460932 0.000432996 0.000405594 0.000374678 0.000432996 0.000408681 0.000374678 0.000345893 0.000405594 0.000374678 0.000340559 0.000306484 0.000374678 0.000345893 0.000306484 0.000273497 0.000408681 0.000387509 0.000345893 0.000318155 0.000387509 0.000368225 0.000318155 0.000289521 0.000345893 0.000318155 0.000273497 0.000240452 0.000318155 0.000289521 0.000240452 0.000205809 0.000368225 0.000347142 0.000289521 0.000257161 0.000347142 0.000319308 0.000257161 0.000217931 0.000289521 0.000257161 0.000205809 0.000167914 0.000257161 0.000217931 0.000167914 0.000126621 0.000340559 0.000306484 0.000269464 0.000232832 0.000306484 0.000273497 0.000232832 0.000196827 0.000269464 0.000232832 0.000195637 0.000157398 0.000232832 0.000196827 0.000157398 0.000119787 0.000273497 0.000240452 0.000196827 0.000160581 0.000240452 0.000205809 0.000160581 0.000123212 0.000196827 0.000160581 0.000119787 8.22848e-05 0.000160581 0.000123212 8.22848e-05 4.45899e-05 0.000195637 0.000157398 0.000121915 8.30416e-05 0.000157398 0.000119787 8.30416e-05 4.50652e-05 0.000121915 8.30416e-05 5.0634e-05 1.19378e-05 8.30416e-05 4.50652e-05 1.19378e-05 -2.54849e-05 0.000119787 8.22848e-05 4.50652e-05 7.75218e-06 8.22848e-05 4.45899e-05 7.75218e-06 -2.88623e-05 4.50652e-05 7.75218e-06 -2.54849e-05 -6.16924e-05 7.75218e-06 -2.88623e-05 -6.16924e-05 -9.64934e-05 0.000205809 0.000167914 0.000123212 8.43747e-05 0.000167914 0.000126621 8.43747e-05 4.49687e-05 0.000123212 8.43747e-05 4.45899e-05 6.96214e-06 8.43747e-05 4.49687e-05 6.96214e-06 -2.93681e-05 0.000126621 8.4975e-05 4.49687e-05 7.87914e-06 8.4975e-05 5.01582e-05 7.87914e-06 -2.16161e-05 4.49687e-05 7.87914e-06 -2.93681e-05 -6.19227e-05 7.87914e-06 -2.16161e-05 -6.19227e-05 -8.73769e-05 4.45899e-05 6.96214e-06 -2.88623e-05 -6.42622e-05 6.96214e-06 -2.93681e-05 -6.42622e-05 -9.72657e-05 -2.88623e-05 -6.42622e-05 -9.64934e-05 -0.000129334 -6.42622e-05 -9.72657e-05 -0.000129334 -0.00015924 -2.93681e-05 -6.19227e-05 -9.72657e-05 -0.000126028 -6.19227e-05 -8.73769e-05 -0.000126028 -0.000148356 -9.72657e-05 -0.000126028 -0.00015924 -0.000184879 -0.000126028 -0.000148356 -0.000184879 -0.000204805 0.000429668 0.000374163 0.000367545 0.000309818 0.000374163 0.000321192 0.000309818 0.000255361 0.000367545 0.000309818 0.000309598 0.000249833 0.000309818 0.000255361 0.000249833 0.000194037 0.000321192 0.000270641 0.000255361 0.000203863 0.000270641 0.000222437 0.000203863 0.000155107 0.000255361 0.000203863 0.000194037 0.000141734 0.000203863 0.000155107 0.000141734 9.25917e-05 0.000309598 0.000249833 0.00025753 0.00019597 0.000249833 0.000194037 0.00019597 0.000139008 0.00025753 0.00019597 0.000212832 0.000149759 0.00019597 0.000139008 0.000149759 9.18266e-05 0.000194037 0.000141734 0.000139008 8.60448e-05 0.000141734 9.25917e-05 8.60448e-05 3.66544e-05 0.000139008 8.60448e-05 9.18266e-05 3.83407e-05 8.60448e-05 3.66544e-05 3.83407e-05 -1.11943e-05 0.000222437 0.000176492 0.000155107 0.000108908 0.000176492 0.000132674 0.000108908 6.50773e-05 0.000155107 0.000108908 9.25917e-05 4.63447e-05 0.000108908 6.50773e-05 4.63447e-05 2.75527e-06 0.000132674 9.07987e-05 6.50773e-05 2.34114e-05 9.07987e-05 5.0634e-05 2.34114e-05 -1.62995e-05 6.50773e-05 2.34114e-05 2.75527e-06 -3.83991e-05 2.34114e-05 -1.62995e-05 -3.83991e-05 -7.73199e-05 9.25917e-05 4.63447e-05 3.66544e-05 -9.49534e-06 4.63447e-05 2.75527e-06 -9.49534e-06 -5.26855e-05 3.66544e-05 -9.49534e-06 -1.11943e-05 -5.71654e-05 -9.49534e-06 -5.26855e-05 -5.71654e-05 -9.98921e-05 2.75527e-06 -3.83991e-05 -5.26855e-05 -9.31606e-05 -3.83991e-05 -7.73199e-05 -9.31606e-05 -0.000131128 -5.26855e-05 -9.31606e-05 -9.98921e-05 -0.000139644 -9.31606e-05 -0.000131128 -0.000139644 -0.000176642 0.000212832 0.000149759 0.000176752 0.000112477 0.000149759 9.18266e-05 0.000112477 5.37801e-05 0.000176752 0.000112477 0.000150272 8.51266e-05 0.000112477 5.37801e-05 8.51266e-05 2.5879e-05 9.18266e-05 3.83407e-05 5.37801e-05 -9.91817e-08 3.83407e-05 -1.11943e-05 -9.91817e-08 -4.97087e-05 5.37801e-05 -9.91817e-08 2.5879e-05 -2.82738e-05 -9.91817e-08 -4.97087e-05 -2.82738e-05 -7.79158e-05 0.000150272 8.51266e-05 0.000134099 6.84272e-05 8.51266e-05 2.5879e-05 6.84272e-05 8.84791e-06 0.000134099 6.84272e-05 0.000128661 6.28125e-05 6.84272e-05 8.84791e-06 6.28125e-05 3.12247e-06 2.5879e-05 -2.82738e-05 8.84791e-06 -4.54658e-05 -2.82738e-05 -7.79158e-05 -4.54658e-05 -9.5119e-05 8.84791e-06 -4.54658e-05 3.12247e-06 -5.12444e-05 -4.54658e-05 -9.5119e-05 -5.12444e-05 -0.0001009 -1.11943e-05 -5.71654e-05 -4.97087e-05 -9.54779e-05 -5.71654e-05 -9.98921e-05 -9.54779e-05 -0.000137759 -4.97087e-05 -9.54779e-05 -7.79158e-05 -0.000123507 -9.54779e-05 -0.000137759 -0.000123507 -0.000165424 -9.98921e-05 -0.000139644 -0.000137759 -0.000176845 -0.000139644 -0.000176642 -0.000176845 -0.000212976 -0.000137759 -0.000176845 -0.000165424 -0.000203981 -0.000176845 -0.000212976 -0.000203981 -0.000239436 -7.79158e-05 -0.000123507 -9.5119e-05 -0.00014059 -0.000123507 -0.000165424 -0.00014059 -0.000182271 -9.5119e-05 -0.00014059 -0.0001009 -0.000146328 -0.00014059 -0.000182271 -0.000146328 -0.000187928 -0.000165424 -0.000203981 -0.000182271 -0.000220489 -0.000203981 -0.000239436 -0.000220489 -0.000255515 -0.000182271 -0.000220489 -0.000187928 -0.00022603 -0.000220489 -0.000255515 -0.00022603 -0.000260909 5.0634e-05 1.19378e-05 -1.62995e-05 -5.42409e-05 1.19378e-05 -2.54849e-05 -5.42409e-05 -9.05259e-05 -1.62995e-05 -5.42409e-05 -7.73199e-05 -0.000114165 -5.42409e-05 -9.05259e-05 -0.000114165 -0.000149015 -2.54849e-05 -6.16924e-05 -9.05259e-05 -0.000125132 -6.16924e-05 -9.64934e-05 -0.000125132 -0.000157831 -9.05259e-05 -0.000125132 -0.000149015 -0.00018183 -0.000125132 -0.000157831 -0.00018183 -0.000212415 -7.73199e-05 -0.000114165 -0.000131128 -0.000166741 -0.000114165 -0.000149015 -0.000166741 -0.000200082 -0.000131128 -0.000166741 -0.000176642 -0.000211053 -0.000166741 -0.000200082 -0.000211053 -0.000242978 -0.000149015 -0.00018183 -0.000200082 -0.000231133 -0.00018183 -0.000212415 -0.000231133 -0.000259759 -0.000200082 -0.000231133 -0.000242978 -0.000272437 -0.000231133 -0.000259759 -0.000272437 -0.000299365 -9.64934e-05 -0.000129334 -0.000157831 -0.00018814 -0.000129334 -0.00015924 -0.00018814 -0.000215315 -0.000157831 -0.00018814 -0.000212415 -0.000240397 -0.00018814 -0.000215315 -0.000240397 -0.000265241 -0.00015924 -0.000184879 -0.000215315 -0.000238422 -0.000184879 -0.000204805 -0.000238422 -0.000256506 -0.000215315 -0.000238422 -0.000265241 -0.000286314 -0.000238422 -0.000256506 -0.000286314 -0.000303 -0.000212415 -0.000240397 -0.000259759 -0.000285705 -0.000240397 -0.000265241 -0.000285705 -0.000308612 -0.000259759 -0.000285705 -0.000299365 -0.00032361 -0.000285705 -0.000308612 -0.00032361 -0.000344957 -0.000265241 -0.000286314 -0.000308612 -0.000328073 -0.000286314 -0.000303 -0.000328073 -0.000343707 -0.000308612 -0.000328073 -0.000344957 -0.000363166 -0.000328073 -0.000343707 -0.000363166 -0.000378022 -0.000176642 -0.000211053 -0.000212976 -0.000246339 -0.000211053 -0.000242978 -0.000246339 -0.000277059 -0.000212976 -0.000246339 -0.000239436 -0.000271992 -0.000246339 -0.000277059 -0.000271992 -0.0003018 -0.000242978 -0.000272437 -0.000277059 -0.000305199 -0.000272437 -0.000299365 -0.000305199 -0.000330753 -0.000277059 -0.000305199 -0.0003018 -0.000328957 -0.000305199 -0.000330753 -0.000328957 -0.000353505 -0.000239436 -0.000271992 -0.000255515 -0.000287566 -0.000271992 -0.0003018 -0.000287566 -0.000316807 -0.000255515 -0.000287566 -0.000260909 -0.000292787 -0.000287566 -0.000316807 -0.000292787 -0.000321837 -0.0003018 -0.000328957 -0.000316807 -0.000343359 -0.000328957 -0.000353505 -0.000343359 -0.000367295 -0.000316807 -0.000343359 -0.000321837 -0.000348185 -0.000343359 -0.000367295 -0.000348185 -0.000371915 -0.000299365 -0.00032361 -0.000330753 -0.000353659 -0.00032361 -0.000344957 -0.000353659 -0.000373808 -0.000330753 -0.000353659 -0.000353505 -0.000375446 -0.000353659 -0.000373808 -0.000375446 -0.000394746 -0.000344957 -0.000363166 -0.000373808 -0.00039108 -0.000363166 -0.000378022 -0.00039108 -0.000405376 -0.000373808 -0.00039108 -0.000394746 -0.000411367 -0.00039108 -0.000405376 -0.000411367 -0.000425285 -0.000353505 -0.000375446 -0.000367295 -0.000388653 -0.000375446 -0.000394746 -0.000388653 -0.000407447 -0.000367295 -0.000388653 -0.000371915 -0.000393079 -0.000388653 -0.000407447 -0.000393079 -0.000411704 -0.000394746 -0.000411367 -0.000407447 -0.000423683 -0.000411367 -0.000425285 -0.000423683 -0.000437384 -0.000407447 -0.000423683 -0.000411704 -0.000427813 -0.000423683 -0.000437384 -0.000427813 -0.000441443 0.000602775 0.000564934 0.000384823 0.000399425 0.000564934 0.000532046 0.000399425 0.000404005 0.000384823 0.000399425 0.000225961 0.000254716 0.000399425 0.000404005 0.000254716 0.000278633 0.000225102 0.000207406 0.000130102 0.000110802 0.000207406 0.000225961 0.000110802 0.000117469 0.000130102 0.000110802 5.01582e-05 3.17576e-05 0.000110802 0.000117469 3.17576e-05 3.24429e-05 0.000225961 0.000254716 0.000117469 0.000140397 0.000254716 0.000278633 0.000140397 0.000167855 0.000117469 0.000140397 3.24429e-05 4.84154e-05 0.000140397 0.000167855 4.84154e-05 7.26721e-05 0.000532046 0.000506822 0.000404005 0.00040525 0.000506822 0.000489382 0.00040525 0.000406483 0.000404005 0.00040525 0.000278633 0.000297409 0.00040525 0.000406483 0.000297409 0.000312867 0.000489382 0.000479299 0.000406483 0.000409251 0.000479299 0.000475777 0.000409251 0.000414089 0.000406483 0.000409251 0.000312867 0.000326447 0.000409251 0.000414089 0.000326447 0.000339042 0.000278633 0.000297409 0.000167855 0.000194075 0.000297409 0.000312867 0.000194075 0.000217535 0.000167855 0.000194075 7.26721e-05 9.94647e-05 0.000194075 0.000217535 9.94647e-05 0.000125565 0.000312867 0.000326447 0.000217535 0.000238249 0.000326447 0.000339042 0.000238249 0.000256599 0.000217535 0.000238249 0.000125565 0.000149618 0.000238249 0.000256599 0.000149618 0.000171216 5.01582e-05 3.17576e-05 -2.16161e-05 -3.84612e-05 3.17576e-05 3.24429e-05 -3.84612e-05 -4.06112e-05 -2.16161e-05 -3.84612e-05 -8.73769e-05 -0.000102683 -3.84612e-05 -4.06112e-05 -0.000102683 -0.000106498 3.24429e-05 4.84154e-05 -4.06112e-05 -2.99138e-05 4.84154e-05 7.26721e-05 -2.99138e-05 -1.03188e-05 -4.06112e-05 -2.99138e-05 -0.000106498 -9.96447e-05 -2.99138e-05 -1.03188e-05 -9.96447e-05 -8.45232e-05 -8.73769e-05 -0.000102683 -0.000148356 -0.000162375 -0.000102683 -0.000106498 -0.000162375 -0.000167207 -0.000148356 -0.000162375 -0.000204805 -0.00021783 -0.000162375 -0.000167207 -0.00021783 -0.000223409 -0.000106498 -9.96447e-05 -0.000167207 -0.000163276 -9.96447e-05 -8.45232e-05 -0.000163276 -0.000152091 -0.000167207 -0.000163276 -0.000223409 -0.000221816 -0.000163276 -0.000152091 -0.000221816 -0.000214029 7.26721e-05 9.94647e-05 -1.03188e-05 1.37548e-05 9.94647e-05 0.000125565 1.37548e-05 3.89916e-05 -1.03188e-05 1.37548e-05 -8.45232e-05 -6.42996e-05 1.37548e-05 3.89916e-05 -6.42996e-05 -4.17762e-05 0.000125565 0.000149618 3.89916e-05 6.33853e-05 0.000149618 0.000171216 6.33853e-05 8.59199e-05 3.89916e-05 6.33853e-05 -4.17762e-05 -1.90186e-05 6.33853e-05 8.59199e-05 -1.90186e-05 2.66505e-06 -8.45232e-05 -6.42996e-05 -0.000152091 -0.000135881 -6.42996e-05 -4.17762e-05 -0.000135881 -0.000116854 -0.000152091 -0.000135881 -0.000214029 -0.000201623 -0.000135881 -0.000116854 -0.000201623 -0.000186293 -4.17762e-05 -1.90186e-05 -0.000116854 -9.68607e-05 -1.90186e-05 2.66505e-06 -9.68607e-05 -7.72245e-05 -0.000116854 -9.68607e-05 -0.000186293 -0.000169584 -9.68607e-05 -7.72245e-05 -0.000169584 -0.00015269 0.000475777 0.000477734 0.000414089 0.000420945 0.000477734 0.000483923 0.000420945 0.000429409 0.000414089 0.000420945 0.000339042 0.000351099 0.000420945 0.000429409 0.000351099 0.000362729 0.000483923 0.000493032 0.000429409 0.000438844 0.000493032 0.000503721 0.000438844 0.000448469 0.000429409 0.000438844 0.000362729 0.000373796 0.000438844 0.000448469 0.000373796 0.000383987 0.000339042 0.000351099 0.000256599 0.000272966 0.000351099 0.000362729 0.000272966 0.000287618 0.000256599 0.000272966 0.000171216 0.000190366 0.000272966 0.000287618 0.000190366 0.000207217 0.000362729 0.000373796 0.000287618 0.000300672 0.000373796 0.000383987 0.000300672 0.000312101 0.000287618 0.000300672 0.000207217 0.000221923 0.000300672 0.000312101 0.000221923 0.00023457 0.000503721 0.000514586 0.000448469 0.000457411 0.000514586 0.000524116 0.000457411 0.000464744 0.000448469 0.000457411 0.000383987 0.000392869 0.000457411 0.000464744 0.000392869 0.000399916 0.000524116 0.000530711 0.000464744 0.000469527 0.000530711 0.000533052 0.000469527 0.000470911 0.000464744 0.000469527 0.000399916 0.000404495 0.000469527 0.000470911 0.000404495 0.000405577 0.000383987 0.000392869 0.000312101 0.00032175 0.000392869 0.000399916 0.00032175 0.000329324 0.000312101 0.00032175 0.00023457 0.000245139 0.00032175 0.000329324 0.000245139 0.000253451 0.000399916 0.000404495 0.000329324 0.000334296 0.000404495 0.000405577 0.000334296 0.000335672 0.000329324 0.000334296 0.000253451 0.000259082 0.000334296 0.000335672 0.000259082 0.000261207 0.000171216 0.000190366 8.59199e-05 0.000106188 0.000190366 0.000207217 0.000106188 0.000124112 8.59199e-05 0.000106188 2.66505e-06 2.25853e-05 0.000106188 0.000124112 2.25853e-05 4.04519e-05 0.000207217 0.000221923 0.000124112 0.000139754 0.000221923 0.00023457 0.000139754 0.000153196 0.000124112 0.000139754 4.04519e-05 5.61962e-05 0.000139754 0.000153196 5.61962e-05 6.9842e-05 2.66505e-06 2.25853e-05 -7.72245e-05 -5.87623e-05 2.25853e-05 4.04519e-05 -5.87623e-05 -4.19068e-05 -7.72245e-05 -5.87623e-05 -0.00015269 -0.000136425 -5.87623e-05 -4.19068e-05 -0.000136425 -0.00012128 4.04519e-05 5.61962e-05 -4.19068e-05 -2.6834e-05 5.61962e-05 6.9842e-05 -2.6834e-05 -1.35768e-05 -4.19068e-05 -2.6834e-05 -0.00012128 -0.000107491 -2.6834e-05 -1.35768e-05 -0.000107491 -9.51205e-05 0.00023457 0.000245139 0.000153196 0.000164459 0.000245139 0.000253451 0.000164459 0.000173442 0.000153196 0.000164459 6.9842e-05 8.14145e-05 0.000164459 0.000173442 8.14145e-05 9.08706e-05 0.000253451 0.000259082 0.000173442 0.000179835 0.000259082 0.000261207 0.000179835 0.00018306 0.000173442 0.000179835 9.08706e-05 9.80433e-05 0.000179835 0.00018306 9.80433e-05 0.000102617 6.9842e-05 8.14145e-05 -1.35768e-05 -2.11077e-06 8.14145e-05 9.08706e-05 -2.11077e-06 7.5859e-06 -1.35768e-05 -2.11077e-06 -9.51205e-05 -8.41263e-05 -2.11077e-06 7.5859e-06 -8.41263e-05 -7.44077e-05 9.08706e-05 9.80433e-05 7.5859e-06 1.55041e-05 9.80433e-05 0.000102617 1.55041e-05 2.15816e-05 7.5859e-06 1.55041e-05 -7.44077e-05 -6.58077e-05 1.55041e-05 2.15816e-05 -6.58077e-05 -5.81533e-05 -0.000204805 -0.00021783 -0.000256506 -0.000268821 -0.00021783 -0.000223409 -0.000268821 -0.000275043 -0.000256506 -0.000268821 -0.000303 -0.00031484 -0.000268821 -0.000275043 -0.00031484 -0.000321666 -0.000223409 -0.000221816 -0.000275043 -0.000275399 -0.000221816 -0.000214029 -0.000275399 -0.000270544 -0.000275043 -0.000275399 -0.000321666 -0.000323672 -0.000275399 -0.000270544 -0.000323672 -0.00032135 -0.000303 -0.00031484 -0.000343707 -0.000355252 -0.00031484 -0.000321666 -0.000355252 -0.000362641 -0.000343707 -0.000355252 -0.000378022 -0.000389395 -0.000355252 -0.000362641 -0.000389395 -0.000397293 -0.000321666 -0.000323672 -0.000362641 -0.000366055 -0.000323672 -0.00032135 -0.000366055 -0.000365888 -0.000362641 -0.000366055 -0.000397293 -0.000401888 -0.000366055 -0.000365888 -0.000401888 -0.000403485 -0.000214029 -0.000201623 -0.000270544 -0.000261604 -0.000201623 -0.000186293 -0.000261604 -0.000249866 -0.000270544 -0.000261604 -0.00032135 -0.000315488 -0.000261604 -0.000249866 -0.000315488 -0.000307068 -0.000186293 -0.000169584 -0.000249866 -0.000236568 -0.000169584 -0.00015269 -0.000236568 -0.000222725 -0.000249866 -0.000236568 -0.000307068 -0.000297061 -0.000236568 -0.000222725 -0.000297061 -0.000286293 -0.00032135 -0.000315488 -0.000365888 -0.000362692 -0.000315488 -0.000307068 -0.000362692 -0.00035722 -0.000365888 -0.000362692 -0.000403485 -0.000402529 -0.000362692 -0.00035722 -0.000402529 -0.000399567 -0.000307068 -0.000297061 -0.00035722 -0.00035022 -0.000297061 -0.000286293 -0.00035022 -0.000342346 -0.00035722 -0.00035022 -0.000399567 -0.000395177 -0.00035022 -0.000342346 -0.000395177 -0.000389865 -0.000378022 -0.000389395 -0.000405376 -0.000416658 -0.000389395 -0.000397293 -0.000416658 -0.000424985 -0.000405376 -0.000416658 -0.000425285 -0.000436525 -0.000416658 -0.000424985 -0.000436525 -0.000445175 -0.00039