# vtk DataFile Version 3.0
#This file was generated by the deal.II library on 2022/11/17 at 0:22:20
ASCII
DATASET UNSTRUCTURED_GRID

POINTS 5536 double
0 0.5 0
0.03125 0.5 0
0 0.53125 0
0.03125 0.53125 0
0.03125 0.5 0
0.0625 0.5 0
0.03125 0.53125 0
0.0625 0.53125 0
0 0.53125 0
0.03125 0.53125 0
0 0.5625 0
0.03125 0.5625 0
0.03125 0.53125 0
0.0625 0.53125 0
0.03125 0.5625 0
0.0625 0.5625 0
0.0625 0.5 0
0.09375 0.5 0
0.0625 0.53125 0
0.09375 0.53125 0
0.09375 0.5 0
0.125 0.5 0
0.09375 0.53125 0
0.125 0.53125 0
0.0625 0.53125 0
0.09375 0.53125 0
0.0625 0.5625 0
0.09375 0.5625 0
0.09375 0.53125 0
0.125 0.53125 0
0.09375 0.5625 0
0.125 0.5625 0
0 0.5625 0
0.03125 0.5625 0
0 0.59375 0
0.03125 0.59375 0
0.03125 0.5625 0
0.0625 0.5625 0
0.03125 0.59375 0
0.0625 0.59375 0
0 0.59375 0
0.03125 0.59375 0
0 0.625 0
0.03125 0.625 0
0.03125 0.59375 0
0.0625 0.59375 0
0.03125 0.625 0
0.0625 0.625 0
0.0625 0.5625 0
0.09375 0.5625 0
0.0625 0.59375 0
0.09375 0.59375 0
0.09375 0.5625 0
0.125 0.5625 0
0.09375 0.59375 0
0.125 0.59375 0
0.0625 0.59375 0
0.09375 0.59375 0
0.0625 0.625 0
0.09375 0.625 0
0.09375 0.59375 0
0.125 0.59375 0
0.09375 0.625 0
0.125 0.625 0
0.125 0.5 0
0.15625 0.5 0
0.125 0.53125 0
0.15625 0.53125 0
0.15625 0.5 0
0.1875 0.5 0
0.15625 0.53125 0
0.1875 0.53125 0
0.125 0.53125 0
0.15625 0.53125 0
0.125 0.5625 0
0.15625 0.5625 0
0.15625 0.53125 0
0.1875 0.53125 0
0.15625 0.5625 0
0.1875 0.5625 0
0.1875 0.5 0
0.21875 0.5 0
0.1875 0.53125 0
0.21875 0.53125 0
0.21875 0.5 0
0.25 0.5 0
0.21875 0.53125 0
0.25 0.53125 0
0.1875 0.53125 0
0.21875 0.53125 0
0.1875 0.5625 0
0.21875 0.5625 0
0.21875 0.53125 0
0.25 0.53125 0
0.21875 0.5625 0
0.25 0.5625 0
0.125 0.5625 0
0.15625 0.5625 0
0.125 0.59375 0
0.15625 0.59375 0
0.15625 0.5625 0
0.1875 0.5625 0
0.15625 0.59375 0
0.1875 0.59375 0
0.125 0.59375 0
0.15625 0.59375 0
0.125 0.625 0
0.15625 0.625 0
0.15625 0.59375 0
0.1875 0.59375 0
0.15625 0.625 0
0.1875 0.625 0
0.1875 0.5625 0
0.21875 0.5625 0
0.1875 0.59375 0
0.21875 0.59375 0
0.21875 0.5625 0
0.25 0.5625 0
0.21875 0.59375 0
0.25 0.59375 0
0.1875 0.59375 0
0.21875 0.59375 0
0.1875 0.625 0
0.21875 0.625 0
0.21875 0.59375 0
0.25 0.59375 0
0.21875 0.625 0
0.25 0.625 0
0 0.625 0
0.03125 0.625 0
0 0.65625 0
0.03125 0.65625 0
0.03125 0.625 0
0.0625 0.625 0
0.03125 0.65625 0
0.0625 0.65625 0
0 0.65625 0
0.03125 0.65625 0
0 0.6875 0
0.03125 0.6875 0
0.03125 0.65625 0
0.0625 0.65625 0
0.03125 0.6875 0
0.0625 0.6875 0
0.0625 0.625 0
0.09375 0.625 0
0.0625 0.65625 0
0.09375 0.65625 0
0.09375 0.625 0
0.125 0.625 0
0.09375 0.65625 0
0.125 0.65625 0
0.0625 0.65625 0
0.09375 0.65625 0
0.0625 0.6875 0
0.09375 0.6875 0
0.09375 0.65625 0
0.125 0.65625 0
0.09375 0.6875 0
0.125 0.6875 0
0 0.6875 0
0.03125 0.6875 0
0 0.71875 0
0.03125 0.71875 0
0.03125 0.6875 0
0.0625 0.6875 0
0.03125 0.71875 0
0.0625 0.71875 0
0 0.71875 0
0.03125 0.71875 0
0 0.75 0
0.03125 0.75 0
0.03125 0.71875 0
0.0625 0.71875 0
0.03125 0.75 0
0.0625 0.75 0
0.0625 0.6875 0
0.09375 0.6875 0
0.0625 0.71875 0
0.09375 0.71875 0
0.09375 0.6875 0
0.125 0.6875 0
0.09375 0.71875 0
0.125 0.71875 0
0.0625 0.71875 0
0.09375 0.71875 0
0.0625 0.75 0
0.09375 0.75 0
0.09375 0.71875 0
0.125 0.71875 0
0.09375 0.75 0
0.125 0.75 0
0.125 0.625 0
0.15625 0.625 0
0.125 0.65625 0
0.15625 0.65625 0
0.15625 0.625 0
0.1875 0.625 0
0.15625 0.65625 0
0.1875 0.65625 0
0.125 0.65625 0
0.15625 0.65625 0
0.125 0.6875 0
0.15625 0.6875 0
0.15625 0.65625 0
0.1875 0.65625 0
0.15625 0.6875 0
0.1875 0.6875 0
0.1875 0.625 0
0.21875 0.625 0
0.1875 0.65625 0
0.21875 0.65625 0
0.21875 0.625 0
0.25 0.625 0
0.21875 0.65625 0
0.25 0.65625 0
0.1875 0.65625 0
0.21875 0.65625 0
0.1875 0.6875 0
0.21875 0.6875 0
0.21875 0.65625 0
0.25 0.65625 0
0.21875 0.6875 0
0.25 0.6875 0
0.125 0.6875 0
0.15625 0.6875 0
0.125 0.71875 0
0.15625 0.71875 0
0.15625 0.6875 0
0.1875 0.6875 0
0.15625 0.71875 0
0.1875 0.71875 0
0.125 0.71875 0
0.15625 0.71875 0
0.125 0.75 0
0.15625 0.75 0
0.15625 0.71875 0
0.1875 0.71875 0
0.15625 0.75 0
0.1875 0.75 0
0.1875 0.6875 0
0.21875 0.6875 0
0.1875 0.71875 0
0.21875 0.71875 0
0.21875 0.6875 0
0.25 0.6875 0
0.21875 0.71875 0
0.25 0.71875 0
0.1875 0.71875 0
0.21875 0.71875 0
0.1875 0.75 0
0.21875 0.75 0
0.21875 0.71875 0
0.25 0.71875 0
0.21875 0.75 0
0.25 0.75 0
0.25 0.5 0
0.28125 0.5 0
0.25 0.53125 0
0.28125 0.53125 0
0.28125 0.5 0
0.3125 0.5 0
0.28125 0.53125 0
0.3125 0.53125 0
0.25 0.53125 0
0.28125 0.53125 0
0.25 0.5625 0
0.28125 0.5625 0
0.28125 0.53125 0
0.3125 0.53125 0
0.28125 0.5625 0
0.3125 0.5625 0
0.25 0.5625 0
0.28125 0.5625 0
0.25 0.59375 0
0.28125 0.59375 0
0.28125 0.5625 0
0.3125 0.5625 0
0.28125 0.59375 0
0.3125 0.59375 0
0.25 0.59375 0
0.28125 0.59375 0
0.25 0.625 0
0.28125 0.625 0
0.28125 0.59375 0
0.3125 0.59375 0
0.28125 0.625 0
0.3125 0.625 0
0.25 0.625 0
0.28125 0.625 0
0.25 0.65625 0
0.28125 0.65625 0
0.28125 0.625 0
0.3125 0.625 0
0.28125 0.65625 0
0.3125 0.65625 0
0.25 0.65625 0
0.28125 0.65625 0
0.25 0.6875 0
0.28125 0.6875 0
0.28125 0.65625 0
0.3125 0.65625 0
0.28125 0.6875 0
0.3125 0.6875 0
0.25 0.6875 0
0.28125 0.6875 0
0.25 0.71875 0
0.28125 0.71875 0
0.28125 0.6875 0
0.3125 0.6875 0
0.28125 0.71875 0
0.3125 0.71875 0
0.25 0.71875 0
0.28125 0.71875 0
0.25 0.75 0
0.28125 0.75 0
0.28125 0.71875 0
0.3125 0.71875 0
0.28125 0.75 0
0.3125 0.75 0
0.3125 0.6875 0
0.34375 0.6875 0
0.3125 0.71875 0
0.34375 0.71875 0
0.34375 0.6875 0
0.375 0.6875 0
0.34375 0.71875 0
0.375 0.71875 0
0.3125 0.71875 0
0.34375 0.71875 0
0.3125 0.75 0
0.34375 0.75 0
0.34375 0.71875 0
0.375 0.71875 0
0.34375 0.75 0
0.375 0.75 0
0.375 0.6875 0
0.40625 0.6875 0
0.375 0.71875 0
0.40625 0.71875 0
0.40625 0.6875 0
0.4375 0.6875 0
0.40625 0.71875 0
0.4375 0.71875 0
0.375 0.71875 0
0.40625 0.71875 0
0.375 0.75 0
0.40625 0.75 0
0.40625 0.71875 0
0.4375 0.71875 0
0.40625 0.75 0
0.4375 0.75 0
0.4375 0.6875 0
0.46875 0.6875 0
0.4375 0.71875 0
0.46875 0.71875 0
0.46875 0.6875 0
0.5 0.6875 0
0.46875 0.71875 0
0.5 0.71875 0
0.4375 0.71875 0
0.46875 0.71875 0
0.4375 0.75 0
0.46875 0.75 0
0.46875 0.71875 0
0.5 0.71875 0
0.46875 0.75 0
0.5 0.75 0
0 0.75 0
0.03125 0.75 0
0 0.78125 0
0.03125 0.78125 0
0.03125 0.75 0
0.0625 0.75 0
0.03125 0.78125 0
0.0625 0.78125 0
0 0.78125 0
0.03125 0.78125 0
0 0.8125 0
0.03125 0.8125 0
0.03125 0.78125 0
0.0625 0.78125 0
0.03125 0.8125 0
0.0625 0.8125 0
0.0625 0.75 0
0.09375 0.75 0
0.0625 0.78125 0
0.09375 0.78125 0
0.09375 0.75 0
0.125 0.75 0
0.09375 0.78125 0
0.125 0.78125 0
0.0625 0.78125 0
0.09375 0.78125 0
0.0625 0.8125 0
0.09375 0.8125 0
0.09375 0.78125 0
0.125 0.78125 0
0.09375 0.8125 0
0.125 0.8125 0
0.125 0.75 0
0.15625 0.75 0
0.125 0.78125 0
0.15625 0.78125 0
0.15625 0.75 0
0.1875 0.75 0
0.15625 0.78125 0
0.1875 0.78125 0
0.125 0.78125 0
0.15625 0.78125 0
0.125 0.8125 0
0.15625 0.8125 0
0.15625 0.78125 0
0.1875 0.78125 0
0.15625 0.8125 0
0.1875 0.8125 0
0.1875 0.75 0
0.21875 0.75 0
0.1875 0.78125 0
0.21875 0.78125 0
0.21875 0.75 0
0.25 0.75 0
0.21875 0.78125 0
0.25 0.78125 0
0.1875 0.78125 0
0.21875 0.78125 0
0.1875 0.8125 0
0.21875 0.8125 0
0.21875 0.78125 0
0.25 0.78125 0
0.21875 0.8125 0
0.25 0.8125 0
0.125 0.8125 0
0.15625 0.8125 0
0.125 0.84375 0
0.15625 0.84375 0
0.15625 0.8125 0
0.1875 0.8125 0
0.15625 0.84375 0
0.1875 0.84375 0
0.125 0.84375 0
0.15625 0.84375 0
0.125 0.875 0
0.15625 0.875 0
0.15625 0.84375 0
0.1875 0.84375 0
0.15625 0.875 0
0.1875 0.875 0
0.1875 0.8125 0
0.21875 0.8125 0
0.1875 0.84375 0
0.21875 0.84375 0
0.21875 0.8125 0
0.25 0.8125 0
0.21875 0.84375 0
0.25 0.84375 0
0.1875 0.84375 0
0.21875 0.84375 0
0.1875 0.875 0
0.21875 0.875 0
0.21875 0.84375 0
0.25 0.84375 0
0.21875 0.875 0
0.25 0.875 0
0.1875 0.875 0
0.21875 0.875 0
0.1875 0.90625 0
0.21875 0.90625 0
0.21875 0.875 0
0.25 0.875 0
0.21875 0.90625 0
0.25 0.90625 0
0.1875 0.90625 0
0.21875 0.90625 0
0.1875 0.9375 0
0.21875 0.9375 0
0.21875 0.90625 0
0.25 0.90625 0
0.21875 0.9375 0
0.25 0.9375 0
0.25 0.75 0
0.28125 0.75 0
0.25 0.78125 0
0.28125 0.78125 0
0.28125 0.75 0
0.3125 0.75 0
0.28125 0.78125 0
0.3125 0.78125 0
0.25 0.78125 0
0.28125 0.78125 0
0.25 0.8125 0
0.28125 0.8125 0
0.28125 0.78125 0
0.3125 0.78125 0
0.28125 0.8125 0
0.3125 0.8125 0
0.3125 0.75 0
0.34375 0.75 0
0.3125 0.78125 0
0.34375 0.78125 0
0.34375 0.75 0
0.375 0.75 0
0.34375 0.78125 0
0.375 0.78125 0
0.3125 0.78125 0
0.34375 0.78125 0
0.3125 0.8125 0
0.34375 0.8125 0
0.34375 0.78125 0
0.375 0.78125 0
0.34375 0.8125 0
0.375 0.8125 0
0.25 0.8125 0
0.28125 0.8125 0
0.25 0.84375 0
0.28125 0.84375 0
0.28125 0.8125 0
0.3125 0.8125 0
0.28125 0.84375 0
0.3125 0.84375 0
0.25 0.84375 0
0.28125 0.84375 0
0.25 0.875 0
0.28125 0.875 0
0.28125 0.84375 0
0.3125 0.84375 0
0.28125 0.875 0
0.3125 0.875 0
0.3125 0.8125 0
0.34375 0.8125 0
0.3125 0.84375 0
0.34375 0.84375 0
0.34375 0.8125 0
0.375 0.8125 0
0.34375 0.84375 0
0.375 0.84375 0
0.3125 0.84375 0
0.34375 0.84375 0
0.3125 0.875 0
0.34375 0.875 0
0.34375 0.84375 0
0.375 0.84375 0
0.34375 0.875 0
0.375 0.875 0
0.375 0.75 0
0.40625 0.75 0
0.375 0.78125 0
0.40625 0.78125 0
0.40625 0.75 0
0.4375 0.75 0
0.40625 0.78125 0
0.4375 0.78125 0
0.375 0.78125 0
0.40625 0.78125 0
0.375 0.8125 0
0.40625 0.8125 0
0.40625 0.78125 0
0.4375 0.78125 0
0.40625 0.8125 0
0.4375 0.8125 0
0.4375 0.75 0
0.46875 0.75 0
0.4375 0.78125 0
0.46875 0.78125 0
0.46875 0.75 0
0.5 0.75 0
0.46875 0.78125 0
0.5 0.78125 0
0.4375 0.78125 0
0.46875 0.78125 0
0.4375 0.8125 0
0.46875 0.8125 0
0.46875 0.78125 0
0.5 0.78125 0
0.46875 0.8125 0
0.5 0.8125 0
0.375 0.8125 0
0.40625 0.8125 0
0.375 0.84375 0
0.40625 0.84375 0
0.40625 0.8125 0
0.4375 0.8125 0
0.40625 0.84375 0
0.4375 0.84375 0
0.375 0.84375 0
0.40625 0.84375 0
0.375 0.875 0
0.40625 0.875 0
0.40625 0.84375 0
0.4375 0.84375 0
0.40625 0.875 0
0.4375 0.875 0
0.4375 0.8125 0
0.46875 0.8125 0
0.4375 0.84375 0
0.46875 0.84375 0
0.46875 0.8125 0
0.5 0.8125 0
0.46875 0.84375 0
0.5 0.84375 0
0.4375 0.84375 0
0.46875 0.84375 0
0.4375 0.875 0
0.46875 0.875 0
0.46875 0.84375 0
0.5 0.84375 0
0.46875 0.875 0
0.5 0.875 0
0.25 0.875 0
0.28125 0.875 0
0.25 0.90625 0
0.28125 0.90625 0
[...]
POINT_DATA 5536
SCALARS x_dis double 1
LOOKUP_TABLE default
0.000991051 0.000937065 0.000993344 0.000938891 0.000937065 0.000882532 0.000938891 0.000883816 0.000993344 0.000938891 0.000988892 0.000933557 0.000938891 0.000883816 0.000933557 0.000877524 0.000882532 0.000828755 0.000883816 0.000829382 0.000828755 0.000776671 0.000829382 0.000776494 0.000883816 0.000829382 0.000877524 0.000821919 0.000829382 0.000776494 0.000821919 0.000767536 0.000988892 0.000933557 0.000978135 0.000921552 0.000933557 0.000877524 0.000921552 0.000864212 0.000978135 0.000921552 0.000961836 0.000903721 0.000921552 0.000864212 0.000903721 0.000844815 0.000877524 0.000821919 0.000864212 0.000807026 0.000821919 0.000767536 0.000807026 0.000750624 0.000864212 0.000807026 0.000844815 0.000785779 0.000807026 0.000750624 0.000785779 0.000727048 0.000776671 0.000727006 0.000776494 0.000725841 0.000727006 0.00068036 0.000725841 0.000677974 0.000776494 0.000725841 0.000767536 0.000714949 0.000725841 0.000677974 0.000714949 0.000664568 0.00068036 0.000637274 0.000677974 0.000633358 0.000637274 0.000598282 0.000633358 0.000592403 0.000677974 0.000633358 0.000664568 0.000616664 0.000633358 0.000592403 0.000616664 0.000571356 0.000767536 0.000714949 0.000750624 0.000695418 0.000714949 0.000664568 0.000695418 0.000641642 0.000750624 0.000695418 0.000727048 0.000668872 0.000695418 0.000641642 0.000668872 0.000611318 0.000664568 0.000616664 0.000641642 0.000589341 0.000616664 0.000571356 0.000589341 0.000538342 0.000641642 0.000589341 0.000611318 0.000554258 0.000589341 0.000538342 0.000554258 0.000497329 0.000961836 0.000903721 0.000941008 0.000881169 0.000903721 0.000844815 0.000881169 0.000820543 0.000941008 0.000881169 0.000916819 0.000855159 0.000881169 0.000820543 0.000855159 0.000792756 0.000844815 0.000785779 0.000820543 0.00075953 0.000785779 0.000727048 0.00075953 0.000698381 0.000820543 0.00075953 0.000792756 0.000729772 0.00075953 0.000698381 0.000729772 0.000666298 0.000916819 0.000855159 0.000890492 0.000827 0.000855159 0.000792756 0.000827 0.000762849 0.000890492 0.000827 0.000863219 0.000797953 0.000827 0.000762849 0.000797953 0.000732154 0.000792756 0.000729772 0.000762849 0.000698006 0.000729772 0.000666298 0.000698006 0.000632432 0.000762849 0.000698006 0.000732154 0.000665644 0.000698006 0.000632432 0.000665644 0.000598278 0.000727048 0.000668872 0.000698381 0.0006372 0.000668872 0.000611318 0.0006372 0.000575936 0.000698381 0.0006372 0.000666298 0.000602326 0.0006372 0.000575936 0.000602326 0.000537741 0.000611318 0.000554258 0.000575936 0.000514369 0.000554258 0.000497329 0.000514369 0.000452085 0.000575936 0.000514369 0.000537741 0.000472311 0.000514369 0.000452085 0.000472311 0.000405687 0.000666298 0.000602326 0.000632432 0.000566044 0.000602326 0.000537741 0.000566044 0.000498705 0.000632432 0.000566044 0.000598278 0.000529927 0.000566044 0.000498705 0.000529927 0.000460456 0.000537741 0.000472311 0.000498705 0.000430226 0.000472311 0.000405687 0.000430226 0.000360386 0.000498705 0.000430226 0.000460456 0.000389745 0.000430226 0.000360386 0.000389745 0.000317713 0.000598282 0.000563973 0.000592403 0.000555484 0.000563973 0.000535072 0.000555484 0.000522929 0.000592403 0.000555484 0.000571356 0.000528565 0.000555484 0.000522929 0.000528565 0.000487875 0.000571356 0.000528565 0.000538342 0.000488167 0.000528565 0.000487875 0.000488167 0.000437889 0.000538342 0.000488167 0.000497329 0.000439885 0.000488167 0.000437889 0.000439885 0.000380884 0.000497329 0.000439885 0.000452085 0.000388458 0.000439885 0.000380884 0.000388458 0.000322725 0.000452085 0.000388458 0.000405687 0.000337428 0.000388458 0.000322725 0.000337428 0.000267159 0.000405687 0.000337428 0.000360386 0.000288988 0.000337428 0.000267159 0.000288988 0.000215913 0.000360386 0.000288988 0.000317713 0.000244354 0.000288988 0.000215913 0.000244354 0.000169812 0.000267159 0.000194578 0.000215913 0.000141268 0.000194578 0.000119693 0.000141268 6.55896e-05 0.000215913 0.000141268 0.000169812 9.44735e-05 0.000141268 6.55896e-05 9.44735e-05 1.90767e-05 0.000119693 4.33801e-05 6.55896e-05 -9.98827e-06 4.33801e-05 -3.22747e-05 -9.98827e-06 -8.35648e-05 6.55896e-05 -9.98827e-06 1.90767e-05 -5.51922e-05 -9.98827e-06 -8.35648e-05 -5.51922e-05 -0.000126672 -3.22747e-05 -0.00010399 -8.35648e-05 -0.000152602 -0.00010399 -0.000168028 -0.000152602 -0.000214237 -8.35648e-05 -0.000152602 -0.000126672 -0.000193344 -0.000152602 -0.000214237 -0.000193344 -0.000253161 0.000863219 0.000797953 0.000836133 0.000769186 0.000797953 0.000732154 0.000769186 0.000701911 0.000836133 0.000769186 0.00081024 0.000741859 0.000769186 0.000701911 0.000741859 0.000673299 0.000732154 0.000665644 0.000701911 0.000633963 0.000665644 0.000598278 0.000633963 0.000565151 0.000701911 0.000633963 0.000673299 0.000604196 0.000633963 0.000565151 0.000604196 0.000534155 0.000598278 0.000529927 0.000565151 0.000495292 0.000529927 0.000460456 0.000495292 0.00042428 0.000565151 0.000495292 0.000534155 0.000463191 0.000495292 0.00042428 0.000463191 0.000391164 0.000460456 0.000389745 0.00042428 0.000352065 0.000389745 0.000317713 0.000352065 0.00027868 0.00042428 0.000352065 0.000391164 0.000318049 0.000352065 0.00027868 0.000318049 0.000243954 0.000534155 0.000463191 0.000506097 0.000434474 0.000463191 0.000391164 0.000434474 0.000361889 0.000506097 0.000434474 0.000482377 0.000410135 0.000434474 0.000361889 0.000410135 0.000337049 0.000391164 0.000318049 0.000361889 0.000288327 0.000318049 0.000243954 0.000288327 0.000213966 0.000361889 0.000288327 0.000337049 0.000263344 0.000288327 0.000213966 0.000263344 0.000189039 0.000337049 0.000263344 0.000316927 0.000243479 0.000263344 0.000189039 0.000243479 0.000169302 0.000316927 0.000243479 0.000302183 0.000228362 0.000243479 0.000169302 0.000228362 0.000154887 0.000317713 0.000244354 0.00027868 0.000204282 0.000244354 0.000169812 0.000204282 0.000129192 0.00027868 0.000204282 0.000243954 0.000169153 0.000204282 0.000129192 0.000169153 9.40962e-05 0.000169812 9.44735e-05 0.000129192 5.39569e-05 9.44735e-05 1.90767e-05 5.39569e-05 -2.06004e-05 0.000129192 5.39569e-05 9.40962e-05 1.94107e-05 5.39569e-05 -2.06004e-05 1.94107e-05 -5.40687e-05 0.000243954 0.000169153 0.000213966 0.00013917 0.000169153 9.40962e-05 0.00013917 6.4463e-05 0.000213966 0.00013917 0.000189039 0.00011442 0.00013917 6.4463e-05 0.00011442 4.02102e-05 9.40962e-05 1.94107e-05 6.4463e-05 -9.46633e-06 1.94107e-05 -5.40687e-05 -9.46633e-06 -8.18237e-05 6.4463e-05 -9.46633e-06 4.02102e-05 -3.29195e-05 -9.46633e-06 -8.18237e-05 -3.29195e-05 -0.000104204 1.90767e-05 -5.51922e-05 -2.06004e-05 -9.33468e-05 -5.51922e-05 -0.000126672 -9.33468e-05 -0.000162862 -2.06004e-05 -9.33468e-05 -5.40687e-05 -0.000125304 -9.33468e-05 -0.000162862 -0.000125304 -0.000193085 -0.000126672 -0.000193344 -0.000162862 -0.000227556 -0.000193344 -0.000253161 -0.000227556 -0.000285879 -0.000162862 -0.000227556 -0.000193085 -0.000256127 -0.000227556 -0.000285879 -0.000256127 -0.000313218 -5.40687e-05 -0.000125304 -8.18237e-05 -0.00015167 -0.000125304 -0.000193085 -0.00015167 -0.00021797 -8.18237e-05 -0.00015167 -0.000104204 -0.000172852 -0.00015167 -0.00021797 -0.000172852 -0.000237931 -0.000193085 -0.000256127 -0.00021797 -0.000279649 -0.000256127 -0.000313218 -0.000279649 -0.000335717 -0.00021797 -0.000279649 -0.000237931 -0.000298509 -0.000279649 -0.000335717 -0.000298509 -0.000353743 0.000189039 0.00011442 0.000169302 9.49544e-05 0.00011442 4.02102e-05 9.49544e-05 2.11734e-05 0.000169302 9.49544e-05 0.000154887 7.99972e-05 9.49544e-05 2.11734e-05 7.99972e-05 7.8037e-06 4.02102e-05 -3.29195e-05 2.11734e-05 -5.10307e-05 -3.29195e-05 -0.000104204 -5.10307e-05 -0.000121407 2.11734e-05 -5.10307e-05 7.8037e-06 -6.37495e-05 -5.10307e-05 -0.000121407 -6.37495e-05 -0.000133533 0.000154887 7.99972e-05 0.000143333 7.30712e-05 7.99972e-05 7.8037e-06 7.30712e-05 6.73583e-07 0.000143333 7.30712e-05 0.000152269 7.43171e-05 7.30712e-05 6.73583e-07 7.43171e-05 -1.17324e-06 7.8037e-06 -6.37495e-05 6.73583e-07 -7.10783e-05 -6.37495e-05 -0.000133533 -7.10783e-05 -0.000140686 6.73583e-07 -7.10783e-05 -1.17324e-06 -7.3385e-05 -7.10783e-05 -0.000140686 -7.3385e-05 -0.000143036 -0.000104204 -0.000172852 -0.000121407 -0.000189102 -0.000172852 -0.000237931 -0.000189102 -0.000253235 -0.000121407 -0.000189102 -0.000133533 -0.000200581 -0.000189102 -0.000253235 -0.000200581 -0.000264053 -0.000237931 -0.000298509 -0.000253235 -0.000312964 -0.000298509 -0.000353743 -0.000312964 -0.000367546 -0.000253235 -0.000312964 -0.000264053 -0.000323182 -0.000312964 -0.000367546 -0.000323182 -0.000377295 -0.000133533 -0.000200581 -0.000140686 -0.000207404 -0.000200581 -0.000264053 -0.000207404 -0.000270498 -0.000140686 -0.000207404 -0.000143036 -0.000209664 -0.000207404 -0.000270498 -0.000209664 -0.000272638 -0.000264053 -0.000323182 -0.000270498 -0.000329272 -0.000323182 -0.000377295 -0.000329272 -0.000383102 -0.000270498 -0.000329272 -0.000272638 -0.000331296 -0.000329272 -0.000383102 -0.000331296 -0.000385031 0.000560233 0.00047938 0.000282318 0.000265394 0.00047938 0.00040468 0.000265394 0.000234922 0.000282318 0.000265394 8.64619e-05 8.5915e-05 0.000265394 0.000234922 8.5915e-05 7.81125e-05 8.64619e-05 8.5915e-05 -4.0191e-05 -4.8329e-05 8.5915e-05 7.81125e-05 -4.8329e-05 -5.2035e-05 -4.0191e-05 -4.8329e-05 -0.000131945 -0.000148287 -4.8329e-05 -5.2035e-05 -0.000148287 -0.000155644 0.00040468 0.000337658 0.000234922 0.00019931 0.000337658 0.000278157 0.00019931 0.000162919 0.000234922 0.00019931 7.81125e-05 6.36062e-05 0.00019931 0.000162919 6.36062e-05 4.50841e-05 0.000278157 0.000225972 0.000162919 0.000128141 0.000225972 0.000180968 0.000128141 9.63211e-05 0.000162919 0.000128141 4.50841e-05 2.48652e-05 0.000128141 9.63211e-05 2.48652e-05 4.66313e-06 7.81125e-05 6.36062e-05 -5.2035e-05 -5.74261e-05 6.36062e-05 4.50841e-05 -5.74261e-05 -6.55788e-05 -5.2035e-05 -5.74261e-05 -0.000155644 -0.000159844 -5.74261e-05 -6.55788e-05 -0.000159844 -0.000163949 4.50841e-05 2.48652e-05 -6.55788e-05 -7.5892e-05 2.48652e-05 4.66313e-06 -7.5892e-05 -8.73655e-05 -6.55788e-05 -7.5892e-05 -0.000163949 -0.000168976 -7.5892e-05 -8.73655e-05 -0.000168976 -0.000174947 -4.62466e-05 -9.93209e-05 -0.000113143 -0.000165701 -9.93209e-05 -0.000131945 -0.000165701 -0.000202699 -0.000113143 -0.000165701 -0.000168028 -0.000220371 -0.000165701 -0.000202699 -0.000220371 -0.000259851 -0.000131945 -0.000148287 -0.000202699 -0.000225451 -0.000148287 -0.000155644 -0.000225451 -0.000237945 -0.000202699 -0.000225451 -0.000259851 -0.000287011 -0.000225451 -0.000237945 -0.000287011 -0.000304179 -0.000168028 -0.000220371 -0.000214237 -0.000266118 -0.000220371 -0.000259851 -0.000266118 -0.000307009 -0.000214237 -0.000266118 -0.000253161 -0.00030443 -0.000266118 -0.000307009 -0.00030443 -0.000346254 -0.000259851 -0.000287011 -0.000307009 -0.00033724 -0.000287011 -0.000304179 -0.00033724 -0.000358166 -0.000307009 -0.00033724 -0.000346254 -0.000378658 -0.00033724 -0.000358166 -0.000378658 -0.000402504 -0.000155644 -0.000159844 -0.000237945 -0.000244599 -0.000159844 -0.000163949 -0.000244599 -0.000248629 -0.000237945 -0.000244599 -0.000304179 -0.000314359 -0.000244599 -0.000248629 -0.000314359 -0.00032028 -0.000163949 -0.000168976 -0.000248629 -0.000251872 -0.000168976 -0.000174947 -0.000251872 -0.000255135 -0.000248629 -0.000251872 -0.00032028 -0.000323917 -0.000251872 -0.000255135 -0.000323917 -0.00032649 -0.000304179 -0.000314359 -0.000358166 -0.000371825 -0.000314359 -0.00032028 -0.000371825 -0.000380332 -0.000358166 -0.000371825 -0.000402504 -0.000419188 -0.000371825 -0.000380332 -0.000419188 -0.000430311 -0.00032028 -0.000323917 -0.000380332 -0.000385483 -0.000323917 -0.00032649 -0.000385483 -0.00038861 -0.000380332 -0.000385483 -0.000430311 -0.000437393 -0.000385483 -0.00038861 -0.000437393 -0.000441713 0.000180968 0.000143033 9.63211e-05 6.82455e-05 0.000143033 0.000112046 6.82455e-05 4.43666e-05 9.63211e-05 6.82455e-05 4.66313e-06 -1.43341e-05 6.82455e-05 4.43666e-05 -1.43341e-05 -3.13235e-05 0.000112046 8.78302e-05 4.43666e-05 2.48981e-05 8.78302e-05 7.00948e-05 2.48981e-05 9.851e-06 4.43666e-05 2.48981e-05 -3.13235e-05 -4.57841e-05 2.48981e-05 9.851e-06 -4.57841e-05 -5.74075e-05 4.66313e-06 -1.43341e-05 -8.73655e-05 -9.90362e-05 -1.43341e-05 -3.13235e-05 -9.90362e-05 -0.000110106 -8.73655e-05 -9.90362e-05 -0.000174947 -0.000181472 -9.90362e-05 -0.000110106 -0.000181472 -0.000188034 -3.13235e-05 -4.57841e-05 -0.000110106 -0.000119954 -4.57841e-05 -5.74075e-05 -0.000119954 -0.000128113 -0.000110106 -0.000119954 -0.000188034 -0.000194119 -0.000119954 -0.000128113 -0.000194119 -0.000199265 7.00948e-05 5.83368e-05 9.851e-06 -9.58924e-07 5.83368e-05 5.17002e-05 -9.58924e-07 -7.90958e-06 9.851e-06 -9.58924e-07 -5.74075e-05 -6.60497e-05 -9.58924e-07 -7.90958e-06 -6.60497e-05 -7.17055e-05 5.17002e-05 4.88298e-05 -7.90958e-06 -1.15545e-05 4.88298e-05 4.79887e-05 -1.15545e-05 -1.2829e-05 -7.90958e-06 -1.15545e-05 -7.17055e-05 -7.45771e-05 -1.15545e-05 -1.2829e-05 -7.45771e-05 -7.54396e-05 -5.74075e-05 -6.60497e-05 -0.000128113 -0.000134245 -6.60497e-05 -7.17055e-05 -0.000134245 -0.000138145 -0.000128113 -0.000134245 -0.000199265 -0.000203083 -0.000134245 -0.000138145 -0.000203083 -0.000205279 -7.17055e-05 -7.45771e-05 -0.000138145 -0.000139832 -7.45771e-05 -7.54396e-05 -0.000139832 -0.000139756 -0.000138145 -0.000139832 -0.000205279 -0.000205713 -0.000139832 -0.000139756 -0.000205713 -0.000204458 -0.000174947 -0.000181472 -0.000255135 -0.000258609 -0.000181472 -0.000188034 -0.000258609 -0.000262167 -0.000255135 -0.000258609 -0.00032649 -0.000328613 -0.000258609 -0.000262167 -0.000328613 -0.000330502 -0.000188034 -0.000194119 -0.000262167 -0.000265527 -0.000194119 -0.000199265 -0.000265527 -0.000268351 -0.000262167 -0.000265527 -0.000330502 -0.000332137 -0.000265527 -0.000268351 -0.000332137 -0.000333358 -0.00032649 -0.000328613 -0.00038861 -0.000390569 -0.000328613 -0.000330502 -0.000390569 -0.00039182 -0.00038861 -0.000390569 -0.000441713 -0.000444218 -0.000390569 -0.00039182 -0.000444218 -0.000445523 -0.000330502 -0.000332137 -0.00039182 -0.000392562 -0.000332137 -0.000333358 -0.000392562 -0.000392808 -0.00039182 -0.000392562 -0.000445523 -0.000445978 -0.000392562 -0.000392808 -0.000445978 -0.000445737 -0.000199265 -0.000203083 -0.000268351 -0.000270291 -0.000203083 -0.000205279 -0.000270291 -0.000271029 -0.000268351 -0.000270291 -0.000333358 -0.000333914 -0.000270291 -0.000271029 -0.000333914 -0.000333497 -0.000205279 -0.000205713 -0.000271029 -0.00027029 -0.000205713 -0.000204458 -0.00027029 -0.000267811 -0.000271029 -0.00027029 -0.000333497 -0.000331738 -0.00027029 -0.000267811 -0.000331738 -0.000328131 -0.000333358 -0.000333914 -0.000392808 -0.000392427 -0.000333914 -0.000333497 -0.000392427 -0.000391148 -0.000392808 -0.000392427 -0.000445737 -0.000444778 -0.000392427 -0.000391148 -0.000444778 -0.000442891 -0.000333497 -0.000331738 -0.000391148 -0.000388557 -0.000331738 -0.000328131 -0.000388557 -0.000384009 -0.000391148 -0.000388557 -0.000442891 -0.000439662 -0.000388557 -0.000384009 -0.000439662 -0.000434401 -0.000253161 -0.00030443 -0.000285879 -0.000336583 -0.00030443 -0.000346254 -0.000336583 -0.000378945 -0.000285879 -0.000336583 -0.000313218 -0.000363382 -0.000336583 -0.000378945 -0.000363382 -0.00040603 -0.000346254 -0.000378658 -0.000378945 -0.000412892 -0.000378658 -0.000402504 -0.000412892 -0.000438954 -0.000378945 -0.000412892 -0.00040603 -0.000441039 -0.000412892 -0.000438954 -0.000441039 -0.000468742 -0.000313218 -0.000363382 -0.000335717 -0.000385381 -0.000363382 -0.00040603 -0.000385381 -0.000428144 -0.000335717 -0.000385381 -0.000353743 -0.000402962 -0.000385381 -0.000428144 -0.000402962 -0.000445731 -0.00040603 -0.000441039 -0.000428144 -0.000463861 -0.000441039 -0.000468742 -0.000463861 -0.000492743 -0.000428144 -0.000463861 -0.000445731 -0.000481899 -0.000463861 -0.000492743 -0.000481899 -0.000511602 -0.000402504 -0.000419188 -0.000438954 -0.000458111 -0.000419188 -0.000430311 -0.000458111 -0.000471574 -0.000438954 -0.000458111 -0.000468742 -0.000489837 -0.000458111 -0.000471574 -0.000489837 -0.00050525 -0.000430311 -0.000437393 -0.000471574 -0.000480596 -0.000437393 -0.000441713 -0.000480596 -0.000486333 -0.000471574 -0.000480596 -0.00050525 -0.00051601 -0.000480596 -0.000486333 -0.00051601 -0.000523135 -0.000468742 -0.000489837 -0.000492743 -0.000515303 -0.000489837 -0.00050525 -0.000515303 -0.00053226 -0.000492743 -0.000515303 -0.000511602 -0.000535226 -0.000515303 -0.00053226 -0.000535226 -0.00055335 -0.00050525 -0.00051601 -0.00053226 -0.000544466 -0.00051601 -0.000523135 -0.000544466 -0.000552816 -0.00053226 -0.000544466 -0.00055335 -0.000566692 -0.000544466 -0.000552816 -0.000566692 -0.000576043 -0.000353743 -0.000402962 -0.000367546 -0.000416391 -0.000402962 -0.000445731 -0.000416391 -0.000459109 -0.000367546 -0.000416391 -0.000377295 -0.000425856 -0.000416391 -0.000459109 -0.000425856 -0.000468507 -0.000445731 -0.000481899 -0.000459109 -0.000495549 -0.000481899 -0.000511602 -0.000495549 -0.000525797 -0.000459109 -0.000495549 -0.000468507 -0.000505097 -0.000495549 -0.000525797 -0.000505097 -0.000535686 -0.000377295 -0.000425856 -0.000383102 -0.000431486 -0.000425856 -0.000468507 -0.000431486 -0.000474084 -0.000383102 -0.000431486 -0.000385031 -0.000433354 -0.000431486 -0.000474084 -0.000433354 -0.000475932 -0.000468507 -0.000505097 -0.000474084 -0.000510746 -0.000505097 -0.000535686 -0.000510746 -0.000541519 -0.000474084 -0.000510746 -0.000475932 -0.000512615 -0.000510746 -0.000541519 -0.000512615 -0.000543447 -0.000511602 -0.000535226 -0.000525797 -0.000550163 -0.000535226 -0.00055335 -0.000550163 -0.000569125 -0.000525797 -0.000550163 -0.000535686 -0.000560533 -0.000550163 -0.000569125 -0.000560533 -0.000580051 -0.00055335 -0.000566692 -0.000569125 -0.000583304 -0.000566692 -0.000576043 -0.000583304 -0.000593415 -0.000569125 -0.000583304 -0.000580051 -0.0005948 -0.000583304 -0.000593415 -0.0005948 -0.000605438 -0.000535686 -0.000560533 -0.000541519 -0.000566634 -0.000560533 -0.000580051 -0.000566634 -0.000586469 -0.000541519 -0.000566634 -0.000543447 -0.000568648 -0.000566634 -0.000586469 -0.000568648 -0.000588585 -0.000580051 -0.0005948 -0.000586469 -0.000601546 -0.0005948 -0.000605438 -0.000601546 -0.000612493 -0.000586469 -0.000601546 -0.000588585 -0.00060377 -0.000601546 -0.000612493 -0.00060377 -0.000614817 -0.000441713 -0.000444218 -0.000486333 -0.00048973 -0.000444218 -0.000445523 -0.00048973 -0.000491479 -0.000486333 -0.00048973 -0.000523135 -0.000527523 -0.00048973 -0.000491479 -0.000527523 -0.000529886 -0.000445523 -0.000445978 -0.000491479 -0.000492033 -0.000445978 -0.000445737 -0.000492033 -0.00049164 -0.000491479 -0.000492033 -0.000529886 -0.000530738 -0.000492033 -0.00049164 -0.000530738 -0.000530394 -0.000523135 -0.000527523 -0.000552816 -0.00055814 -0.000527523 -0.000529886 -0.00055814 -0.000561141 -0.000552816 -0.00055814 -0.000576043 -0.000582167 -0.00055814 -0.000561141 -0.000582167 -0.000585742 -0.000529886 -0.000530738 -0.000561141 -0.00056236 -0.000530738 -0.000530394 -0.00056236 -0.000562162 -0.000561141 -0.00056236 -0.000585742 -0.000587318 -0.00056236 -0.000562162 -0.000587318 -0.000587289 -0.000445737 -0.000444778 -0.00049164 -0.000490368 -0.000444778 -0.000442891 -0.000490368 -0.000488076 -0.00049164 -0.000490368 -0.000530394 -0.000528985 -0.000490368 -0.000488076 -0.000528985 -0.00052644 -0.000442891 -0.000439662 -0.000488076 -0.000484388 -0.000439662 -0.000434401 -0.000484388 -0.000478651 -0.000488076 -0.000484388 -0.00052644 -0.000522449 -0.000484388 -0.000478651 -0.000522449 -0.000516447 -0.000530394 -0.000528985 -0.000562162 -0.00056072 -0.000528985 -0.00052644 -0.00056072 -0.00055803 -0.000562162 -0.00056072 -0.000587289 -0.000585867 -0.00056072 -0.00055803 -0.000585867 -0.000583101 -0.00052644 -0.000522449 -0.00055803 -0.000553859 -0.000522449 -0.000516447 -0.000553859 -0.00054776 -0.00055803 -0.000553859 -0.000583101 -0.00057884 -0.000553859 -0.000