# vtk DataFile Version 3.0
#This file was generated by the deal.II library on 2022/11/17 at 0:41:22
ASCII
DATASET UNSTRUCTURED_GRID

POINTS 10144 double
0.4375 0.75 0
0.46875 0.75 0
0.4375 0.78125 0
0.46875 0.78125 0
0.46875 0.75 0
0.5 0.75 0
0.46875 0.78125 0
0.5 0.78125 0
0.4375 0.78125 0
0.46875 0.78125 0
0.4375 0.8125 0
0.46875 0.8125 0
0.46875 0.78125 0
0.5 0.78125 0
0.46875 0.8125 0
0.5 0.8125 0
0.4375 0.8125 0
0.46875 0.8125 0
0.4375 0.84375 0
0.46875 0.84375 0
0.46875 0.8125 0
0.5 0.8125 0
0.46875 0.84375 0
0.5 0.84375 0
0.4375 0.84375 0
0.46875 0.84375 0
0.4375 0.875 0
0.46875 0.875 0
0.46875 0.84375 0
0.5 0.84375 0
0.46875 0.875 0
0.5 0.875 0
0.375 0.875 0
0.40625 0.875 0
0.375 0.90625 0
0.40625 0.90625 0
0.40625 0.875 0
0.4375 0.875 0
0.40625 0.90625 0
0.4375 0.90625 0
0.375 0.90625 0
0.40625 0.90625 0
0.375 0.9375 0
0.40625 0.9375 0
0.40625 0.90625 0
0.4375 0.90625 0
0.40625 0.9375 0
0.4375 0.9375 0
0.4375 0.875 0
0.46875 0.875 0
0.4375 0.90625 0
0.46875 0.90625 0
0.46875 0.875 0
0.5 0.875 0
0.46875 0.90625 0
0.5 0.90625 0
0.4375 0.90625 0
0.46875 0.90625 0
0.4375 0.9375 0
0.46875 0.9375 0
0.46875 0.90625 0
0.5 0.90625 0
0.46875 0.9375 0
0.5 0.9375 0
0.625 0.5 0
0.65625 0.5 0
0.625 0.53125 0
0.65625 0.53125 0
0.65625 0.5 0
0.6875 0.5 0
0.65625 0.53125 0
0.6875 0.53125 0
0.625 0.53125 0
0.65625 0.53125 0
0.625 0.5625 0
0.65625 0.5625 0
0.65625 0.53125 0
0.6875 0.53125 0
0.65625 0.5625 0
0.6875 0.5625 0
0.6875 0.5 0
0.71875 0.5 0
0.6875 0.53125 0
0.71875 0.53125 0
0.71875 0.5 0
0.75 0.5 0
0.71875 0.53125 0
0.75 0.53125 0
0.6875 0.53125 0
0.71875 0.53125 0
0.6875 0.5625 0
0.71875 0.5625 0
0.71875 0.53125 0
0.75 0.53125 0
0.71875 0.5625 0
0.75 0.5625 0
0.625 0.5625 0
0.65625 0.5625 0
0.625 0.59375 0
0.65625 0.59375 0
0.65625 0.5625 0
0.6875 0.5625 0
0.65625 0.59375 0
0.6875 0.59375 0
0.625 0.59375 0
0.65625 0.59375 0
0.625 0.625 0
0.65625 0.625 0
0.65625 0.59375 0
0.6875 0.59375 0
0.65625 0.625 0
0.6875 0.625 0
0.6875 0.5625 0
0.71875 0.5625 0
0.6875 0.59375 0
0.71875 0.59375 0
0.71875 0.5625 0
0.75 0.5625 0
0.71875 0.59375 0
0.75 0.59375 0
0.6875 0.59375 0
0.71875 0.59375 0
0.6875 0.625 0
0.71875 0.625 0
0.71875 0.59375 0
0.75 0.59375 0
0.71875 0.625 0
0.75 0.625 0
0.5625 0.625 0
0.59375 0.625 0
0.5625 0.65625 0
0.59375 0.65625 0
0.59375 0.625 0
0.625 0.625 0
0.59375 0.65625 0
0.625 0.65625 0
0.5625 0.65625 0
0.59375 0.65625 0
0.5625 0.6875 0
0.59375 0.6875 0
0.59375 0.65625 0
0.625 0.65625 0
0.59375 0.6875 0
0.625 0.6875 0
0.5 0.6875 0
0.53125 0.6875 0
0.5 0.71875 0
0.53125 0.71875 0
0.53125 0.6875 0
0.5625 0.6875 0
0.53125 0.71875 0
0.5625 0.71875 0
0.5 0.71875 0
0.53125 0.71875 0
0.5 0.75 0
0.53125 0.75 0
0.53125 0.71875 0
0.5625 0.71875 0
0.53125 0.75 0
0.5625 0.75 0
0.5625 0.6875 0
0.59375 0.6875 0
0.5625 0.71875 0
0.59375 0.71875 0
0.59375 0.6875 0
0.625 0.6875 0
0.59375 0.71875 0
0.625 0.71875 0
0.5625 0.71875 0
0.59375 0.71875 0
0.5625 0.75 0
0.59375 0.75 0
0.59375 0.71875 0
0.625 0.71875 0
0.59375 0.75 0
0.625 0.75 0
0.625 0.625 0
0.65625 0.625 0
0.625 0.65625 0
0.65625 0.65625 0
0.65625 0.625 0
0.6875 0.625 0
0.65625 0.65625 0
0.6875 0.65625 0
0.625 0.65625 0
0.65625 0.65625 0
0.625 0.6875 0
0.65625 0.6875 0
0.65625 0.65625 0
0.6875 0.65625 0
0.65625 0.6875 0
0.6875 0.6875 0
0.6875 0.625 0
0.71875 0.625 0
0.6875 0.65625 0
0.71875 0.65625 0
0.71875 0.625 0
0.75 0.625 0
0.71875 0.65625 0
0.75 0.65625 0
0.6875 0.65625 0
0.71875 0.65625 0
0.6875 0.6875 0
0.71875 0.6875 0
0.71875 0.65625 0
0.75 0.65625 0
0.71875 0.6875 0
0.75 0.6875 0
0.625 0.6875 0
0.65625 0.6875 0
0.625 0.71875 0
0.65625 0.71875 0
0.65625 0.6875 0
0.6875 0.6875 0
0.65625 0.71875 0
0.6875 0.71875 0
0.625 0.71875 0
0.65625 0.71875 0
0.625 0.75 0
0.65625 0.75 0
0.65625 0.71875 0
0.6875 0.71875 0
0.65625 0.75 0
0.6875 0.75 0
0.6875 0.6875 0
0.71875 0.6875 0
0.6875 0.71875 0
0.71875 0.71875 0
0.71875 0.6875 0
0.75 0.6875 0
0.71875 0.71875 0
0.75 0.71875 0
0.6875 0.71875 0
0.71875 0.71875 0
0.6875 0.75 0
0.71875 0.75 0
0.71875 0.71875 0
0.75 0.71875 0
0.71875 0.75 0
0.75 0.75 0
0.75 0.5 0
0.78125 0.5 0
0.75 0.53125 0
0.78125 0.53125 0
0.78125 0.5 0
0.8125 0.5 0
0.78125 0.53125 0
0.8125 0.53125 0
0.75 0.53125 0
0.78125 0.53125 0
0.75 0.5625 0
0.78125 0.5625 0
0.78125 0.53125 0
0.8125 0.53125 0
0.78125 0.5625 0
0.8125 0.5625 0
0.8125 0.5 0
0.84375 0.5 0
0.8125 0.53125 0
0.84375 0.53125 0
0.84375 0.5 0
0.875 0.5 0
0.84375 0.53125 0
0.875 0.53125 0
0.8125 0.53125 0
0.84375 0.53125 0
0.8125 0.5625 0
0.84375 0.5625 0
0.84375 0.53125 0
0.875 0.53125 0
0.84375 0.5625 0
0.875 0.5625 0
0.75 0.5625 0
0.78125 0.5625 0
0.75 0.59375 0
0.78125 0.59375 0
0.78125 0.5625 0
0.8125 0.5625 0
0.78125 0.59375 0
0.8125 0.59375 0
0.75 0.59375 0
0.78125 0.59375 0
0.75 0.625 0
0.78125 0.625 0
0.78125 0.59375 0
0.8125 0.59375 0
0.78125 0.625 0
0.8125 0.625 0
0.8125 0.5625 0
0.84375 0.5625 0
0.8125 0.59375 0
0.84375 0.59375 0
0.84375 0.5625 0
0.875 0.5625 0
0.84375 0.59375 0
0.875 0.59375 0
0.8125 0.59375 0
0.84375 0.59375 0
0.8125 0.625 0
0.84375 0.625 0
0.84375 0.59375 0
0.875 0.59375 0
0.84375 0.625 0
0.875 0.625 0
0.875 0.5 0
0.90625 0.5 0
0.875 0.53125 0
0.90625 0.53125 0
0.90625 0.5 0
0.9375 0.5 0
0.90625 0.53125 0
0.9375 0.53125 0
0.875 0.53125 0
0.90625 0.53125 0
0.875 0.5625 0
0.90625 0.5625 0
0.90625 0.53125 0
0.9375 0.53125 0
0.90625 0.5625 0
0.9375 0.5625 0
0.9375 0.5 0
0.96875 0.5 0
0.9375 0.53125 0
0.96875 0.53125 0
0.96875 0.5 0
1 0.5 0
0.96875 0.53125 0
1 0.53125 0
0.9375 0.53125 0
0.96875 0.53125 0
0.9375 0.5625 0
0.96875 0.5625 0
0.96875 0.53125 0
1 0.53125 0
0.96875 0.5625 0
1 0.5625 0
0.875 0.5625 0
0.90625 0.5625 0
0.875 0.59375 0
0.90625 0.59375 0
0.90625 0.5625 0
0.9375 0.5625 0
0.90625 0.59375 0
0.9375 0.59375 0
0.875 0.59375 0
0.90625 0.59375 0
0.875 0.625 0
0.90625 0.625 0
0.90625 0.59375 0
0.9375 0.59375 0
0.90625 0.625 0
0.9375 0.625 0
0.9375 0.5625 0
0.96875 0.5625 0
0.9375 0.59375 0
0.96875 0.59375 0
0.96875 0.5625 0
1 0.5625 0
0.96875 0.59375 0
1 0.59375 0
0.9375 0.59375 0
0.96875 0.59375 0
0.9375 0.625 0
0.96875 0.625 0
0.96875 0.59375 0
1 0.59375 0
0.96875 0.625 0
1 0.625 0
0.75 0.625 0
0.78125 0.625 0
0.75 0.65625 0
0.78125 0.65625 0
0.78125 0.625 0
0.8125 0.625 0
0.78125 0.65625 0
0.8125 0.65625 0
0.75 0.65625 0
0.78125 0.65625 0
0.75 0.6875 0
0.78125 0.6875 0
0.78125 0.65625 0
0.8125 0.65625 0
0.78125 0.6875 0
0.8125 0.6875 0
0.8125 0.625 0
0.84375 0.625 0
0.8125 0.65625 0
0.84375 0.65625 0
0.84375 0.625 0
0.875 0.625 0
0.84375 0.65625 0
0.875 0.65625 0
0.8125 0.65625 0
0.84375 0.65625 0
0.8125 0.6875 0
0.84375 0.6875 0
0.84375 0.65625 0
0.875 0.65625 0
0.84375 0.6875 0
0.875 0.6875 0
0.75 0.6875 0
0.78125 0.6875 0
0.75 0.71875 0
0.78125 0.71875 0
0.78125 0.6875 0
0.8125 0.6875 0
0.78125 0.71875 0
0.8125 0.71875 0
0.75 0.71875 0
0.78125 0.71875 0
0.75 0.75 0
0.78125 0.75 0
0.78125 0.71875 0
0.8125 0.71875 0
0.78125 0.75 0
0.8125 0.75 0
0.8125 0.6875 0
0.84375 0.6875 0
0.8125 0.71875 0
0.84375 0.71875 0
0.84375 0.6875 0
0.875 0.6875 0
0.84375 0.71875 0
0.875 0.71875 0
0.8125 0.71875 0
0.84375 0.71875 0
0.8125 0.75 0
0.84375 0.75 0
0.84375 0.71875 0
0.875 0.71875 0
0.84375 0.75 0
0.875 0.75 0
0.875 0.625 0
0.90625 0.625 0
0.875 0.65625 0
0.90625 0.65625 0
0.90625 0.625 0
0.9375 0.625 0
0.90625 0.65625 0
0.9375 0.65625 0
0.875 0.65625 0
0.90625 0.65625 0
0.875 0.6875 0
0.90625 0.6875 0
0.90625 0.65625 0
0.9375 0.65625 0
0.90625 0.6875 0
0.9375 0.6875 0
0.9375 0.625 0
0.96875 0.625 0
0.9375 0.65625 0
0.96875 0.65625 0
0.96875 0.625 0
1 0.625 0
0.96875 0.65625 0
1 0.65625 0
0.9375 0.65625 0
0.96875 0.65625 0
0.9375 0.6875 0
0.96875 0.6875 0
0.96875 0.65625 0
1 0.65625 0
0.96875 0.6875 0
1 0.6875 0
0.875 0.6875 0
0.90625 0.6875 0
0.875 0.71875 0
0.90625 0.71875 0
0.90625 0.6875 0
0.9375 0.6875 0
0.90625 0.71875 0
0.9375 0.71875 0
0.875 0.71875 0
0.90625 0.71875 0
0.875 0.75 0
0.90625 0.75 0
0.90625 0.71875 0
0.9375 0.71875 0
0.90625 0.75 0
0.9375 0.75 0
0.9375 0.6875 0
0.96875 0.6875 0
0.9375 0.71875 0
0.96875 0.71875 0
0.96875 0.6875 0
1 0.6875 0
0.96875 0.71875 0
1 0.71875 0
0.9375 0.71875 0
0.96875 0.71875 0
0.9375 0.75 0
0.96875 0.75 0
0.96875 0.71875 0
1 0.71875 0
0.96875 0.75 0
1 0.75 0
0.5 0.75 0
0.53125 0.75 0
0.5 0.78125 0
0.53125 0.78125 0
0.53125 0.75 0
0.5625 0.75 0
0.53125 0.78125 0
0.5625 0.78125 0
0.5 0.78125 0
0.53125 0.78125 0
0.5 0.8125 0
0.53125 0.8125 0
0.53125 0.78125 0
0.5625 0.78125 0
0.53125 0.8125 0
0.5625 0.8125 0
0.5625 0.75 0
0.59375 0.75 0
0.5625 0.78125 0
0.59375 0.78125 0
0.59375 0.75 0
0.625 0.75 0
0.59375 0.78125 0
0.625 0.78125 0
0.5625 0.78125 0
0.59375 0.78125 0
0.5625 0.8125 0
0.59375 0.8125 0
0.59375 0.78125 0
0.625 0.78125 0
0.59375 0.8125 0
0.625 0.8125 0
0.5 0.8125 0
0.53125 0.8125 0
0.5 0.84375 0
0.53125 0.84375 0
0.53125 0.8125 0
0.5625 0.8125 0
0.53125 0.84375 0
0.5625 0.84375 0
0.5 0.84375 0
0.53125 0.84375 0
0.5 0.875 0
0.53125 0.875 0
0.53125 0.84375 0
0.5625 0.84375 0
0.53125 0.875 0
0.5625 0.875 0
0.5625 0.8125 0
0.59375 0.8125 0
0.5625 0.84375 0
0.59375 0.84375 0
0.59375 0.8125 0
0.625 0.8125 0
0.59375 0.84375 0
0.625 0.84375 0
0.5625 0.84375 0
0.59375 0.84375 0
0.5625 0.875 0
0.59375 0.875 0
0.59375 0.84375 0
0.625 0.84375 0
0.59375 0.875 0
0.625 0.875 0
0.625 0.75 0
0.65625 0.75 0
0.625 0.78125 0
0.65625 0.78125 0
0.65625 0.75 0
0.6875 0.75 0
0.65625 0.78125 0
0.6875 0.78125 0
0.625 0.78125 0
0.65625 0.78125 0
0.625 0.8125 0
0.65625 0.8125 0
0.65625 0.78125 0
0.6875 0.78125 0
0.65625 0.8125 0
0.6875 0.8125 0
0.6875 0.75 0
0.71875 0.75 0
0.6875 0.78125 0
0.71875 0.78125 0
0.71875 0.75 0
0.75 0.75 0
0.71875 0.78125 0
0.75 0.78125 0
0.6875 0.78125 0
0.71875 0.78125 0
0.6875 0.8125 0
0.71875 0.8125 0
0.71875 0.78125 0
0.75 0.78125 0
0.71875 0.8125 0
0.75 0.8125 0
0.625 0.8125 0
0.65625 0.8125 0
0.625 0.84375 0
0.65625 0.84375 0
0.65625 0.8125 0
0.6875 0.8125 0
0.65625 0.84375 0
0.6875 0.84375 0
0.625 0.84375 0
0.65625 0.84375 0
0.625 0.875 0
0.65625 0.875 0
0.65625 0.84375 0
0.6875 0.84375 0
0.65625 0.875 0
0.6875 0.875 0
0.6875 0.8125 0
0.71875 0.8125 0
0.6875 0.84375 0
[...]
POINT_DATA 10144
SCALARS x_dis double 1
LOOKUP_TABLE default
-0.000211396 -0.000264766 -0.000280001 -0.000335886 -0.000264766 -0.000308926 -0.000335886 -0.000383622 -0.000280001 -0.000335886 -0.000339858 -0.000397828 -0.000335886 -0.000383622 -0.000397828 -0.000448436 -0.000339858 -0.000397828 -0.000391219 -0.000450744 -0.000397828 -0.000448436 -0.000450744 -0.000503617 -0.000391219 -0.000450744 -0.000433986 -0.000494867 -0.000450744 -0.000503617 -0.000494867 -0.000549491 -0.000295169 -0.000367072 -0.000328684 -0.000400269 -0.000367072 -0.000433986 -0.000400269 -0.000467532 -0.000328684 -0.000400269 -0.000352436 -0.000423811 -0.000400269 -0.000467532 -0.000423811 -0.000491132 -0.000433986 -0.000494867 -0.000467532 -0.000529939 -0.000494867 -0.000549491 -0.000529939 -0.000586501 -0.000467532 -0.000529939 -0.000491132 -0.000554402 -0.000529939 -0.000586501 -0.000554402 -0.00061406 0.000625524 0.00057713 0.00049132 0.000455605 0.00057713 0.000538056 0.000455605 0.000424922 0.00049132 0.000455605 0.000343518 0.000320075 0.000455605 0.000424922 0.000320075 0.000297847 0.000538056 0.000506498 0.000424922 0.000399321 0.000506498 0.00048173 0.000399321 0.00037863 0.000424922 0.000399321 0.000297847 0.000278271 0.000399321 0.00037863 0.000278271 0.000261821 0.000343518 0.000320075 0.000196586 0.000180063 0.000320075 0.000297847 0.000180063 0.0001641 0.000196586 0.000180063 5.50102e-05 4.18565e-05 0.000180063 0.0001641 4.18565e-05 2.95115e-05 0.000297847 0.000278271 0.0001641 0.000149471 0.000278271 0.000261821 0.000149471 0.00013676 0.0001641 0.000149471 2.95115e-05 1.81894e-05 0.000149471 0.00013676 1.81894e-05 8.23633e-06 8.44276e-05 6.9214e-05 -5.02864e-05 -6.53586e-05 6.9214e-05 5.50102e-05 -6.53586e-05 -7.87846e-05 -5.02864e-05 -6.53586e-05 -0.000171539 -0.000188721 -6.53586e-05 -7.87846e-05 -0.000188721 -0.000203332 -0.000124784 -0.000150533 -0.000222983 -0.000254047 -0.000150533 -0.000171539 -0.000254047 -0.000279166 -0.000222983 -0.000254047 -0.000308926 -0.000344886 -0.000254047 -0.000279166 -0.000344886 -0.000374476 -0.000171539 -0.000188721 -0.000279166 -0.000299906 -0.000188721 -0.000203332 -0.000299906 -0.000317117 -0.000279166 -0.000299906 -0.000374476 -0.000399026 -0.000299906 -0.000317117 -0.000399026 -0.000419471 5.50102e-05 4.18565e-05 -7.87846e-05 -9.08971e-05 4.18565e-05 2.95115e-05 -9.08971e-05 -0.000101766 -7.87846e-05 -9.08971e-05 -0.000203332 -0.000215948 -9.08971e-05 -0.000101766 -0.000215948 -0.000226846 2.95115e-05 1.81894e-05 -0.000101766 -0.000111414 1.81894e-05 8.23633e-06 -0.000111414 -0.000119755 -0.000101766 -0.000111414 -0.000226846 -0.000236173 -0.000111414 -0.000119755 -0.000236173 -0.000243984 -0.000203332 -0.000215948 -0.000317117 -0.000331534 -0.000215948 -0.000226846 -0.000331534 -0.000343629 -0.000317117 -0.000331534 -0.000419471 -0.000436486 -0.000331534 -0.000343629 -0.000436486 -0.000450588 -0.000226846 -0.000236173 -0.000343629 -0.000353688 -0.000236173 -0.000243984 -0.000353688 -0.00036188 -0.000343629 -0.000353688 -0.000450588 -0.000462146 -0.000353688 -0.00036188 -0.000462146 -0.000471411 0.00048173 0.000463332 0.00037863 0.000362614 0.000463332 0.000450873 0.000362614 0.000350963 0.00037863 0.000362614 0.000261821 0.000248604 0.000362614 0.000350963 0.000248604 0.00023854 0.000450873 0.000443768 0.000350963 0.000343252 0.000443768 0.000441184 0.000343252 0.000338914 0.000350963 0.000343252 0.00023854 0.000231433 0.000343252 0.000338914 0.000231433 0.000226998 0.000261821 0.000248604 0.00013676 0.000126249 0.000248604 0.00023854 0.000126249 0.00011804 0.00013676 0.000126249 8.23633e-06 -8.75047e-08 0.000126249 0.00011804 -8.75047e-08 -6.61287e-06 0.00023854 0.000231433 0.00011804 0.000112133 0.000231433 0.000226998 0.000112133 0.000108461 0.00011804 0.000112133 -6.61287e-06 -1.12285e-05 0.000112133 0.000108461 -1.12285e-05 -1.38644e-05 0.000441184 0.000441986 0.000338914 0.000337222 0.000441986 0.000444691 0.000337222 0.000337308 0.000338914 0.000337222 0.000226998 0.000224865 0.000337222 0.000337308 0.000224865 0.000224571 0.000444691 0.00044749 0.000337308 0.000338187 0.00044749 0.000448693 0.000338187 0.00033871 0.000337308 0.000338187 0.000224571 0.000225469 0.000338187 0.00033871 0.000225469 0.000226347 0.000226998 0.000224865 0.000108461 0.000106895 0.000224865 0.000224571 0.000106895 0.000107194 0.000108461 0.000106895 -1.38644e-05 -1.45082e-05 0.000106895 0.000107194 -1.45082e-05 -1.327e-05 0.000224571 0.000225469 0.000107194 0.000108853 0.000225469 0.000226347 0.000108853 0.000110784 0.000107194 0.000108853 -1.327e-05 -1.05122e-05 0.000108853 0.000110784 -1.05122e-05 -7.03544e-06 8.23633e-06 -8.75047e-08 -0.000119755 -0.000126649 -8.75047e-08 -6.61287e-06 -0.000126649 -0.000131948 -0.000119755 -0.000126649 -0.000243984 -0.000250261 -0.000126649 -0.000131948 -0.000250261 -0.000254918 -6.61287e-06 -1.12285e-05 -0.000131948 -0.000135509 -1.12285e-05 -1.38644e-05 -0.000135509 -0.000137196 -0.000131948 -0.000135509 -0.000254918 -0.000257827 -0.000135509 -0.000137196 -0.000257827 -0.000258832 -0.000243984 -0.000250261 -0.00036188 -0.000368281 -0.000250261 -0.000254918 -0.000368281 -0.000372879 -0.00036188 -0.000368281 -0.000471411 -0.000478537 -0.000368281 -0.000372879 -0.000478537 -0.000483573 -0.000254918 -0.000257827 -0.000372879 -0.000375579 -0.000257827 -0.000258832 -0.000375579 -0.000376223 -0.000372879 -0.000375579 -0.000483573 -0.000486461 -0.000375579 -0.000376223 -0.000486461 -0.000487048 -1.38644e-05 -1.45082e-05 -0.000137196 -0.000136914 -1.45082e-05 -1.327e-05 -0.000136914 -0.00013467 -0.000137196 -0.000136914 -0.000258832 -0.000257783 -0.000136914 -0.00013467 -0.000257783 -0.00025459 -1.327e-05 -1.05122e-05 -0.00013467 -0.000130653 -1.05122e-05 -7.03544e-06 -0.000130653 -0.000125314 -0.00013467 -0.000130653 -0.00025459 -0.000249259 -0.000130653 -0.000125314 -0.000249259 -0.000241896 -0.000258832 -0.000257783 -0.000376223 -0.000374622 -0.000257783 -0.00025459 -0.000374622 -0.000370595 -0.000376223 -0.000374622 -0.000487048 -0.000485111 -0.000374622 -0.000370595 -0.000485111 -0.000480382 -0.00025459 -0.000249259 -0.000370595 -0.000363969 -0.000249259 -0.000241896 -0.000363969 -0.000354547 -0.000370595 -0.000363969 -0.000480382 -0.000472533 -0.000363969 -0.000354547 -0.000472533 -0.00046112 -0.000308926 -0.000344886 -0.000383622 -0.000423955 -0.000344886 -0.000374476 -0.000423955 -0.000457798 -0.000383622 -0.000423955 -0.000448436 -0.000492163 -0.000423955 -0.000457798 -0.000492163 -0.000529695 -0.000374476 -0.000399026 -0.000457798 -0.000486247 -0.000399026 -0.000419471 -0.000486247 -0.000510143 -0.000457798 -0.000486247 -0.000529695 -0.000561783 -0.000486247 -0.000510143 -0.000561783 -0.000589062 -0.000448436 -0.000492163 -0.000503617 -0.000550036 -0.000492163 -0.000529695 -0.000550036 -0.000590609 -0.000503617 -0.000550036 -0.000549491 -0.000597941 -0.000550036 -0.000590609 -0.000597941 -0.000640791 -0.000529695 -0.000561783 -0.000590609 -0.000625881 -0.000561783 -0.000589062 -0.000625881 -0.000656258 -0.000590609 -0.000625881 -0.000640791 -0.000678801 -0.000625881 -0.000656258 -0.000678801 -0.000711759 -0.000419471 -0.000436486 -0.000510143 -0.00053012 -0.000436486 -0.000450588 -0.00053012 -0.000546674 -0.000510143 -0.00053012 -0.000589062 -0.000612046 -0.00053012 -0.000546674 -0.000612046 -0.000631175 -0.000450588 -0.000462146 -0.000546674 -0.000560197 -0.000462146 -0.000471411 -0.000560197 -0.00057099 -0.000546674 -0.000560197 -0.000631175 -0.000646844 -0.000560197 -0.00057099 -0.000646844 -0.00065938 -0.000589062 -0.000612046 -0.000656258 -0.000682022 -0.000612046 -0.000631175 -0.000682022 -0.00070358 -0.000656258 -0.000682022 -0.000711759 -0.000739865 -0.000682022 -0.00070358 -0.000739865 -0.000763434 -0.000631175 -0.000646844 -0.00070358 -0.000721325 -0.000646844 -0.00065938 -0.000721325 -0.000735613 -0.00070358 -0.000721325 -0.000763434 -0.000783022 -0.000721325 -0.000735613 -0.000783022 -0.000798921 -0.000549491 -0.000597941 -0.000586501 -0.00063604 -0.000597941 -0.000640791 -0.00063604 -0.000680674 -0.000586501 -0.00063604 -0.00061406 -0.000666229 -0.00063604 -0.000680674 -0.000666229 -0.000709857 -0.000640791 -0.000678801 -0.000680674 -0.000720616 -0.000678801 -0.000711759 -0.000720616 -0.000755734 -0.000680674 -0.000720616 -0.000709857 -0.000753185 -0.000720616 -0.000755734 -0.000753185 -0.000786516 -0.000709857 -0.000753185 -0.000733493 -0.000766258 -0.000753185 -0.000786516 -0.000766258 -0.000802279 -0.000733493 -0.000766258 -0.000702512 -0.000760282 -0.000766258 -0.000802279 -0.000760282 -0.000805944 -0.000711759 -0.000739865 -0.000755734 -0.000785094 -0.000739865 -0.000763434 -0.000785094 -0.000810262 -0.000755734 -0.000785094 -0.000786516 -0.000817005 -0.000785094 -0.000810262 -0.000817005 -0.000843623 -0.000763434 -0.000783022 -0.000810262 -0.000831409 -0.000783022 -0.000798921 -0.000831409 -0.000848696 -0.000810262 -0.000831409 -0.000843623 -0.000866087 -0.000831409 -0.000848696 -0.000866087 -0.000884493 -0.000786516 -0.000817005 -0.000802279 -0.000835284 -0.000817005 -0.000843623 -0.000835284 -0.000863386 -0.000802279 -0.000835284 -0.000805944 -0.000840966 -0.000835284 -0.000863386 -0.000840966 -0.000869882 -0.000843623 -0.000866087 -0.000863386 -0.000886873 -0.000866087 -0.000884493 -0.000886873 -0.000906045 -0.000863386 -0.000886873 -0.000869882 -0.000893783 -0.000886873 -0.000906045 -0.000893783 -0.000913236 -0.000471411 -0.000478537 -0.00057099 -0.000579261 -0.000478537 -0.000483573 -0.000579261 -0.000585102 -0.00057099 -0.000579261 -0.00065938 -0.000669023 -0.000579261 -0.000585102 -0.000669023 -0.00067589 -0.000483573 -0.000486461 -0.000585102 -0.000588486 -0.000486461 -0.000487048 -0.000588486 -0.00058926 -0.000585102 -0.000588486 -0.00067589 -0.000679968 -0.000588486 -0.00058926 -0.000679968 -0.000681099 -0.00065938 -0.000669023 -0.000735613 -0.000746684 -0.000669023 -0.00067589 -0.000746684 -0.000754656 -0.000735613 -0.000746684 -0.000798921 -0.000811338 -0.000746684 -0.000754656 -0.000811338 -0.000820376 -0.00067589 -0.000679968 -0.000754656 -0.000759517 -0.000679968 -0.000681099 -0.000759517 -0.000761097 -0.000754656 -0.000759517 -0.000820376 -0.000826014 -0.000759517 -0.000761097 -0.000826014 -0.000828063 -0.000487048 -0.000485111 -0.00058926 -0.00058717 -0.000485111 -0.000480382 -0.00058717 -0.000581873 -0.00058926 -0.00058717 -0.000681099 -0.000678997 -0.00058717 -0.000581873 -0.000678997 -0.000673256 -0.000480382 -0.000472533 -0.000581873 -0.000572911 -0.000472533 -0.00046112 -0.000572911 -0.00055965 -0.000581873 -0.000572911 -0.000673256 -0.000663314 -0.000572911 -0.00055965 -0.000663314 -0.0006484 -0.000681099 -0.000678997 -0.000761097 -0.000759078 -0.000678997 -0.000673256 -0.000759078 -0.000753 -0.000761097 -0.000759078 -0.000828063 -0.000826178 -0.000759078 -0.000753 -0.000826178 -0.000819854 -0.000673256 -0.000663314 -0.000753 -0.000742224 -0.000663314 -0.0006484 -0.000742224 -0.000725887 -0.000753 -0.000742224 -0.000819854 -0.000808397 -0.000742224 -0.000725887 -0.000808397 -0.000790884 -0.000798921 -0.000811338 -0.000848696 -0.000862282 -0.000811338 -0.000820376 -0.000862282 -0.000872255 -0.000848696 -0.000862282 -0.000884493 -0.000899 -0.000862282 -0.000872255 -0.000899 -0.000909702 -0.000820376 -0.000826014 -0.000872255 -0.000878582 -0.000826014 -0.000828063 -0.000878582 -0.000881063 -0.000872255 -0.000878582 -0.000909702 -0.000916571 -0.000878582 -0.000881063 -0.000916571 -0.000919397 -0.000884493 -0.000899 -0.000906045 -0.000921151 -0.000899 -0.000909702 -0.000921151 -0.000932321 -0.000906045 -0.000921151 -0.000913236 -0.000928554 -0.000921151 -0.000932321 -0.000928554 -0.000939885 -0.000909702 -0.000916571 -0.000932321 -0.000939534 -0.000916571 -0.000919397 -0.000939534 -0.000942581 -0.000932321 -0.000939534 -0.000939885 -0.000947215 -0.000939534 -0.000942581 -0.000947215 -0.000950338 -0.000828063 -0.000826178 -0.000881063 -0.000879326 -0.000826178 -0.000819854 -0.000879326 -0.000872829 -0.000881063 -0.000879326 -0.000919397 -0.00091779 -0.000879326 -0.000872829 -0.00091779 -0.00091118 -0.000819854 -0.000808397 -0.000872829 -0.000860843 -0.000808397 -0.000790884 -0.000860843 -0.000842413 -0.000872829 -0.000860843 -0.00091118 -0.00089882 -0.000860843 -0.000842413 -0.00089882 -0.000879732 -0.000919397 -0.00091779 -0.000942581 -0.000941064 -0.00091779 -0.00091118 -0.000941064 -0.000934392 -0.000942581 -0.000941064 -0.000950338 -0.000948853 -0.000941064 -0.000934392 -0.000948853 -0.000942162 -0.00091118 -0.00089882 -0.000934392 -0.000921808 -0.00089882 -0.000879732 -0.000921808 -0.000902326 -0.000934392 -0.000921808 -0.000942162 -0.000929503 -0.000921808 -0.000902326 -0.000929503 -0.000909891 -0.000401493 -0.000462451 -0.000397153 -0.000458261 -0.000462451 -0.000518078 -0.000458261 -0.000513985 -0.000397153 -0.000458261 -0.000384108 -0.000445698 -0.000458261 -0.000513985 -0.000445698 -0.000501703 -0.000518078 -0.000567859 -0.000513985 -0.0005638 -0.000567859 -0.000611457 -0.0005638 -0.000607378 -0.000513985 -0.0005638 -0.000501703 -0.000551614 -0.0005638 -0.000607378 -0.000551614 -0.00059512 -0.000384108 -0.000445698 -0.000362383 -0.000424765 -0.000445698 -0.000501703 -0.000424765 -0.000481225 -0.000362383 -0.000424765 -0.000332065 -0.000395488 -0.000424765 -0.000481225 -0.000395488 -0.000452545 -0.000501703 -0.000551614 -0.000481225 -0.000531272 -0.000551614 -0.00059512 -0.000531272 -0.000574624 -0.000481225 -0.000531272 -0.000452545 -0.000502721 -0.000531272 -0.000574624 -0.000502721 -0.000545782 -0.000332065 -0.000395488 -0.000293254 -0.000357918 -0.000395488 -0.000452545 -0.000357918 -0.00041565 -0.000293254 -0.000357918 -0.000245961 -0.000312112 -0.000357918 -0.00041565 -0.000312112 -0.000370545 -0.000452545 -0.000502721 -0.00041565 -0.000465878 -0.000502721 -0.000545782 -0.000465878 -0.000508396 -0.00041565 -0.000465878 -0.000370545 -0.000420484 -0.000465878 -0.000508396 -0.000420484 -0.000462157 -0.000370545 -0.000420484 -0.000316797 -0.0003662 -0.000420484 -0.000462157 -0.0003662 -0.000406599 -0.000316797 -0.0003662 -0.000254232 -0.000302549 -0.0003662 -0.000406599 -0.000302549 -0.000341031 -0.000254232 -0.000302549 -0.000182051 -0.000228517 -0.000302549 -0.000341031 -0.000228517 -0.00026443 -0.000182051 -0.000228517 -9.89217e-05 -0.000142766 -0.000228517 -0.00026443 -0.000142766 -0.000175255 -0.000611457 -0.000648723 -0.000607378 -0.000644578 -0.000648723 -0.000679715 -0.000644578 -0.000675469 -0.000607378 -0.000644578 -0.00059512 -0.00063211 -0.000644578 -0.000675469 -0.00063211 -0.000662694 -0.000679715 -0.000704697 -0.000675469 -0.00070033 -0.000704697 -0.000724081 -0.00070033 -0.000719587 -0.000675469 -0.00070033 -0.000662694 -0.000687189 -0.00070033 -0.000719587 -0.000687189 -0.00070606 -0.00059512 -0.00063211 -0.000574624 -0.000611231 -0.00063211 -0.000662694 -0.000611231 -0.000641274 -0.000574624 -0.000611231 -0.000545782 -0.000581775 -0.000611231 -0.000641274 -0.000581775 -0.00061101 -0.000662694 -0.000687189 -0.000641274 -0.000665146 -0.000687189 -0.00070606 -0.000665146 -0.000683376 -0.000641274 -0.000665146 -0.00061101 -0.000633986 -0.000665146 -0.000683376 -0.000633986 -0.000651325 -0.000724081 -0.000738372 -0.000719587 -0.000733753 -0.000738372 -0.000748127 -0.000733753 -0.000743396 -0.000719587 -0.000733753 -0.00070606 -0.000719856 -0.000733753 -0.000743396 -0.000719856 -0.000729167 -0.000748127 -0.000753924 -0.000743396 -0.000749099 -0.000753924 -0.00075632 -0.000749099 -0.000751423 -0.000743396 -0.000749099 -0.000729167 -0.000734596 -0.000749099 -0.000751423 -0.000734596 -0.000736714 -0.00070606 -0.000719856 -0.000683376 -0.000696565 -0.000719856 -0.000729167 -0.000696565 -0.000705345 -0.000683376 -0.000696565 -0.000651325 -0.000663695 -0.000696565 -0.000705345 -0.000663695 -0.000671779 -0.000729167 -0.000734596 -0.000705345 -0.000710342 -0.000734596 -0.000736714 -0.000710342 -0.000712144 -0.000705345 -0.000710342 -0.000671779 -0.000676231 -0.000710342 -0.000712144 -0.000676231 -0.000677651 -0.000545782 -0.000581775 -0.000508396 -0.000543485 -0.000581775 -0.00061101 -0.000543485 -0.000571605 -0.000508396 -0.000543485 -0.000462157 -0.000495977 -0.000543485 -0.000571605 -0.000495977 -0.000522641 -0.00061101 -0.000633986 -0.000571605 -0.000593404 -0.000633986 -0.000651325 -0.000593404 -0.00060962 -0.000571605 -0.000593404 -0.000522641 -0.000542992 -0.000593404 -0.00060962 -0.000542992 -0.000557906 -0.000462157 -0.000495977 -0.000406599 -0.000438708 -0.000495977 -0.000522641 -0.000438708 -0.000463562 -0.000406599 -0.000438708 -0.000341031 -0.00037092 -0.000438708 -0.000463562 -0.00037092 -0.000393658 -0.000522641 -0.000542992 -0.000463562 -0.000482248 -0.000542992 -0.000557906 -0.000482248 -0.000495778 -0.000463562 -0.000482248 -0.000393658 -0.00041059 -0.000482248 -0.000495778 -0.00041059 -0.000422833 -0.000651325 -0.000663695 -0.00060962 -0.000621004 -0.000663695 -0.000671779 -0.000621004 -0.000628287 -0.00060962 -0.000621004 -0.000557906 -0.000568214 -0.000621004 -0.000628287 -0.000568214 -0.000574685 -0.000671779 -0.000676231 -0.000628287 -0.000632148 -0.000676231 -0.000677651 -0.000632148 -0.000633191 -0.000628287 -0.000632148 -0.000574685 -0.000578008 -0.000632148 -0.000633191 -0.000578008 -0.000578777 -0.000557906 -0.000568214 -0.000495778 -0.000505046 -0.000568214 -0.000574685 -0.000505046 -0.000510833 -0.000495778 -0.000505046 -0.000422833 -0.000431283 -0.000505046 -0.000510833 -0.000431283 -0.000436699 -0.000574685 -0.000578008 -0.000510833 -0.000513809 -0.000578008 -0.000578777 -0.000513809 -0.000514538 -0.000510833 -0.000513809 -0.000436699 -0.000439702 -0.000513809 -0.000514538 -0.000439702 -0.000440788 -0.00075632 -0.000755819 -0.000751423 -0.000750874 -0.000755819 -0.000752835 -0.000750874 -0.000747868 -0.000751423 -0.000750874 -0.000736714 -0.00073603 -0.000750874 -0.000747868 -0.00073603 -0.000732963 -0.000752835 -0.000747679 -0.000747868 -0.000742713 -0.000747679 -0.000740518 -0.000742713 -0.000735576 -0.000747868 -0.000742713 -0.000732963 -0.000727818 -0.000742713 -0.000735576 -0.000727818 -0.000720757 -0.000736714 -0.00073603 -0.000712144 -0.000711263 -0.00073603 -0.000732963 -0.000711263 -0.000708118 -0.000712144 -0.000711263 -0.000677651 -0.000676554 -0.000711263 -0.000708118 -0.000676554 -0.000673354 -0.000732963 -0.000727818 -0.000708118 -0.00070301 -0.000727818 -0.000720757 -0.00070301 -0.00069609 -0.000708118 -0.00070301 -0.000673354 -0.000668339 -0.00070301 -0.00069609 -0.000668339 -0.000661646 -0.000740518 -0.000731354 -0.000735576 -0.000726457 -0.000731354 -0.000720007 -0.000726457 -0.000715172 -0.000735576 -0.000726457 -0.000720757 -0.000711774 -0.000726457 -0.000715172 -0.000711774 -0.000700679 -0.000720007 -0.000706102 -0.000715172 -0.000701343 -0.000706102 -0.000689062 -0.000701343 -0.000684387 -0.000715172 -0.000701343 -0.000700679 -0.00068708 -0.000701343 -0.000684387 -0.00068708 -0.000670376 -0.000720757 -0.000711774 -0.00069609 -0.000687343 -0.000711774 -0.000700679 -0.000687343 -0.000676568 -0.00069609 -0.000687343 -0.000661646 -0.000653249 -0.000687343 -0.000676568 -0.000653249 -0.000642934 -0.000700679 -0.00068708 -0.000676568 -0.000663359 -0.00068708 -0.000670376 -0.000663359 -0.000647088 -0.000676568 -0.000663359 -0.000642934 -0.000630282 -0.000663359 -0.000647088 -0.000630282 -0.000614638 -0.000677651 -0.000676554 -0.000633191 -0.000631925 -0.000676554 -0.000673354 -0.000631925 -0.000628749 -0.000633191 -0.000631925 -0.000578777 -0.00057748 -0.000631925 -0.000628749 -0.00057748 -0.000574483 -0.000673354 -0.000668339 -0.000628749 -0.000623928 -0.000668339 -0.000661646 -0.000623928 -0.000617581 -0.000628749 -0.000623928 -0.000574483 -0.000570019 -0.000623928 -0.000617581 -0.000570019 -0.000564179 -0.000578777 -0.00057748 -0.000514538 -0.000513463 -0.00057748 -0.000574483 -0.000513463 -0.000510897 -0.000514538 -0.000513463 -0.000440788 -0.000440326 -0.000513463 -0.000510897 -0.000440326 -0.000438558 -0.000574483 -0.000570019 -0.000510897 -0.000507028 -0.000570019 -0.000564179 -0.000507028 -0.000501908 -0.000510897 -0.000507028 -0.000438558 -0.000435605 -0.