# vtk DataFile Version 3.0
#This file was generated by the deal.II library on 2022/11/17 at 0:42:49
ASCII
DATASET UNSTRUCTURED_GRID

POINTS 10144 double
0.4375 0.75 0
0.46875 0.75 0
0.4375 0.78125 0
0.46875 0.78125 0
0.46875 0.75 0
0.5 0.75 0
0.46875 0.78125 0
0.5 0.78125 0
0.4375 0.78125 0
0.46875 0.78125 0
0.4375 0.8125 0
0.46875 0.8125 0
0.46875 0.78125 0
0.5 0.78125 0
0.46875 0.8125 0
0.5 0.8125 0
0.4375 0.8125 0
0.46875 0.8125 0
0.4375 0.84375 0
0.46875 0.84375 0
0.46875 0.8125 0
0.5 0.8125 0
0.46875 0.84375 0
0.5 0.84375 0
0.4375 0.84375 0
0.46875 0.84375 0
0.4375 0.875 0
0.46875 0.875 0
0.46875 0.84375 0
0.5 0.84375 0
0.46875 0.875 0
0.5 0.875 0
0.375 0.875 0
0.40625 0.875 0
0.375 0.90625 0
0.40625 0.90625 0
0.40625 0.875 0
0.4375 0.875 0
0.40625 0.90625 0
0.4375 0.90625 0
0.375 0.90625 0
0.40625 0.90625 0
0.375 0.9375 0
0.40625 0.9375 0
0.40625 0.90625 0
0.4375 0.90625 0
0.40625 0.9375 0
0.4375 0.9375 0
0.4375 0.875 0
0.46875 0.875 0
0.4375 0.90625 0
0.46875 0.90625 0
0.46875 0.875 0
0.5 0.875 0
0.46875 0.90625 0
0.5 0.90625 0
0.4375 0.90625 0
0.46875 0.90625 0
0.4375 0.9375 0
0.46875 0.9375 0
0.46875 0.90625 0
0.5 0.90625 0
0.46875 0.9375 0
0.5 0.9375 0
0.625 0.5 0
0.65625 0.5 0
0.625 0.53125 0
0.65625 0.53125 0
0.65625 0.5 0
0.6875 0.5 0
0.65625 0.53125 0
0.6875 0.53125 0
0.625 0.53125 0
0.65625 0.53125 0
0.625 0.5625 0
0.65625 0.5625 0
0.65625 0.53125 0
0.6875 0.53125 0
0.65625 0.5625 0
0.6875 0.5625 0
0.6875 0.5 0
0.71875 0.5 0
0.6875 0.53125 0
0.71875 0.53125 0
0.71875 0.5 0
0.75 0.5 0
0.71875 0.53125 0
0.75 0.53125 0
0.6875 0.53125 0
0.71875 0.53125 0
0.6875 0.5625 0
0.71875 0.5625 0
0.71875 0.53125 0
0.75 0.53125 0
0.71875 0.5625 0
0.75 0.5625 0
0.625 0.5625 0
0.65625 0.5625 0
0.625 0.59375 0
0.65625 0.59375 0
0.65625 0.5625 0
0.6875 0.5625 0
0.65625 0.59375 0
0.6875 0.59375 0
0.625 0.59375 0
0.65625 0.59375 0
0.625 0.625 0
0.65625 0.625 0
0.65625 0.59375 0
0.6875 0.59375 0
0.65625 0.625 0
0.6875 0.625 0
0.6875 0.5625 0
0.71875 0.5625 0
0.6875 0.59375 0
0.71875 0.59375 0
0.71875 0.5625 0
0.75 0.5625 0
0.71875 0.59375 0
0.75 0.59375 0
0.6875 0.59375 0
0.71875 0.59375 0
0.6875 0.625 0
0.71875 0.625 0
0.71875 0.59375 0
0.75 0.59375 0
0.71875 0.625 0
0.75 0.625 0
0.5625 0.625 0
0.59375 0.625 0
0.5625 0.65625 0
0.59375 0.65625 0
0.59375 0.625 0
0.625 0.625 0
0.59375 0.65625 0
0.625 0.65625 0
0.5625 0.65625 0
0.59375 0.65625 0
0.5625 0.6875 0
0.59375 0.6875 0
0.59375 0.65625 0
0.625 0.65625 0
0.59375 0.6875 0
0.625 0.6875 0
0.5 0.6875 0
0.53125 0.6875 0
0.5 0.71875 0
0.53125 0.71875 0
0.53125 0.6875 0
0.5625 0.6875 0
0.53125 0.71875 0
0.5625 0.71875 0
0.5 0.71875 0
0.53125 0.71875 0
0.5 0.75 0
0.53125 0.75 0
0.53125 0.71875 0
0.5625 0.71875 0
0.53125 0.75 0
0.5625 0.75 0
0.5625 0.6875 0
0.59375 0.6875 0
0.5625 0.71875 0
0.59375 0.71875 0
0.59375 0.6875 0
0.625 0.6875 0
0.59375 0.71875 0
0.625 0.71875 0
0.5625 0.71875 0
0.59375 0.71875 0
0.5625 0.75 0
0.59375 0.75 0
0.59375 0.71875 0
0.625 0.71875 0
0.59375 0.75 0
0.625 0.75 0
0.625 0.625 0
0.65625 0.625 0
0.625 0.65625 0
0.65625 0.65625 0
0.65625 0.625 0
0.6875 0.625 0
0.65625 0.65625 0
0.6875 0.65625 0
0.625 0.65625 0
0.65625 0.65625 0
0.625 0.6875 0
0.65625 0.6875 0
0.65625 0.65625 0
0.6875 0.65625 0
0.65625 0.6875 0
0.6875 0.6875 0
0.6875 0.625 0
0.71875 0.625 0
0.6875 0.65625 0
0.71875 0.65625 0
0.71875 0.625 0
0.75 0.625 0
0.71875 0.65625 0
0.75 0.65625 0
0.6875 0.65625 0
0.71875 0.65625 0
0.6875 0.6875 0
0.71875 0.6875 0
0.71875 0.65625 0
0.75 0.65625 0
0.71875 0.6875 0
0.75 0.6875 0
0.625 0.6875 0
0.65625 0.6875 0
0.625 0.71875 0
0.65625 0.71875 0
0.65625 0.6875 0
0.6875 0.6875 0
0.65625 0.71875 0
0.6875 0.71875 0
0.625 0.71875 0
0.65625 0.71875 0
0.625 0.75 0
0.65625 0.75 0
0.65625 0.71875 0
0.6875 0.71875 0
0.65625 0.75 0
0.6875 0.75 0
0.6875 0.6875 0
0.71875 0.6875 0
0.6875 0.71875 0
0.71875 0.71875 0
0.71875 0.6875 0
0.75 0.6875 0
0.71875 0.71875 0
0.75 0.71875 0
0.6875 0.71875 0
0.71875 0.71875 0
0.6875 0.75 0
0.71875 0.75 0
0.71875 0.71875 0
0.75 0.71875 0
0.71875 0.75 0
0.75 0.75 0
0.75 0.5 0
0.78125 0.5 0
0.75 0.53125 0
0.78125 0.53125 0
0.78125 0.5 0
0.8125 0.5 0
0.78125 0.53125 0
0.8125 0.53125 0
0.75 0.53125 0
0.78125 0.53125 0
0.75 0.5625 0
0.78125 0.5625 0
0.78125 0.53125 0
0.8125 0.53125 0
0.78125 0.5625 0
0.8125 0.5625 0
0.8125 0.5 0
0.84375 0.5 0
0.8125 0.53125 0
0.84375 0.53125 0
0.84375 0.5 0
0.875 0.5 0
0.84375 0.53125 0
0.875 0.53125 0
0.8125 0.53125 0
0.84375 0.53125 0
0.8125 0.5625 0
0.84375 0.5625 0
0.84375 0.53125 0
0.875 0.53125 0
0.84375 0.5625 0
0.875 0.5625 0
0.75 0.5625 0
0.78125 0.5625 0
0.75 0.59375 0
0.78125 0.59375 0
0.78125 0.5625 0
0.8125 0.5625 0
0.78125 0.59375 0
0.8125 0.59375 0
0.75 0.59375 0
0.78125 0.59375 0
0.75 0.625 0
0.78125 0.625 0
0.78125 0.59375 0
0.8125 0.59375 0
0.78125 0.625 0
0.8125 0.625 0
0.8125 0.5625 0
0.84375 0.5625 0
0.8125 0.59375 0
0.84375 0.59375 0
0.84375 0.5625 0
0.875 0.5625 0
0.84375 0.59375 0
0.875 0.59375 0
0.8125 0.59375 0
0.84375 0.59375 0
0.8125 0.625 0
0.84375 0.625 0
0.84375 0.59375 0
0.875 0.59375 0
0.84375 0.625 0
0.875 0.625 0
0.875 0.5 0
0.90625 0.5 0
0.875 0.53125 0
0.90625 0.53125 0
0.90625 0.5 0
0.9375 0.5 0
0.90625 0.53125 0
0.9375 0.53125 0
0.875 0.53125 0
0.90625 0.53125 0
0.875 0.5625 0
0.90625 0.5625 0
0.90625 0.53125 0
0.9375 0.53125 0
0.90625 0.5625 0
0.9375 0.5625 0
0.9375 0.5 0
0.96875 0.5 0
0.9375 0.53125 0
0.96875 0.53125 0
0.96875 0.5 0
1 0.5 0
0.96875 0.53125 0
1 0.53125 0
0.9375 0.53125 0
0.96875 0.53125 0
0.9375 0.5625 0
0.96875 0.5625 0
0.96875 0.53125 0
1 0.53125 0
0.96875 0.5625 0
1 0.5625 0
0.875 0.5625 0
0.90625 0.5625 0
0.875 0.59375 0
0.90625 0.59375 0
0.90625 0.5625 0
0.9375 0.5625 0
0.90625 0.59375 0
0.9375 0.59375 0
0.875 0.59375 0
0.90625 0.59375 0
0.875 0.625 0
0.90625 0.625 0
0.90625 0.59375 0
0.9375 0.59375 0
0.90625 0.625 0
0.9375 0.625 0
0.9375 0.5625 0
0.96875 0.5625 0
0.9375 0.59375 0
0.96875 0.59375 0
0.96875 0.5625 0
1 0.5625 0
0.96875 0.59375 0
1 0.59375 0
0.9375 0.59375 0
0.96875 0.59375 0
0.9375 0.625 0
0.96875 0.625 0
0.96875 0.59375 0
1 0.59375 0
0.96875 0.625 0
1 0.625 0
0.75 0.625 0
0.78125 0.625 0
0.75 0.65625 0
0.78125 0.65625 0
0.78125 0.625 0
0.8125 0.625 0
0.78125 0.65625 0
0.8125 0.65625 0
0.75 0.65625 0
0.78125 0.65625 0
0.75 0.6875 0
0.78125 0.6875 0
0.78125 0.65625 0
0.8125 0.65625 0
0.78125 0.6875 0
0.8125 0.6875 0
0.8125 0.625 0
0.84375 0.625 0
0.8125 0.65625 0
0.84375 0.65625 0
0.84375 0.625 0
0.875 0.625 0
0.84375 0.65625 0
0.875 0.65625 0
0.8125 0.65625 0
0.84375 0.65625 0
0.8125 0.6875 0
0.84375 0.6875 0
0.84375 0.65625 0
0.875 0.65625 0
0.84375 0.6875 0
0.875 0.6875 0
0.75 0.6875 0
0.78125 0.6875 0
0.75 0.71875 0
0.78125 0.71875 0
0.78125 0.6875 0
0.8125 0.6875 0
0.78125 0.71875 0
0.8125 0.71875 0
0.75 0.71875 0
0.78125 0.71875 0
0.75 0.75 0
0.78125 0.75 0
0.78125 0.71875 0
0.8125 0.71875 0
0.78125 0.75 0
0.8125 0.75 0
0.8125 0.6875 0
0.84375 0.6875 0
0.8125 0.71875 0
0.84375 0.71875 0
0.84375 0.6875 0
0.875 0.6875 0
0.84375 0.71875 0
0.875 0.71875 0
0.8125 0.71875 0
0.84375 0.71875 0
0.8125 0.75 0
0.84375 0.75 0
0.84375 0.71875 0
0.875 0.71875 0
0.84375 0.75 0
0.875 0.75 0
0.875 0.625 0
0.90625 0.625 0
0.875 0.65625 0
0.90625 0.65625 0
0.90625 0.625 0
0.9375 0.625 0
0.90625 0.65625 0
0.9375 0.65625 0
0.875 0.65625 0
0.90625 0.65625 0
0.875 0.6875 0
0.90625 0.6875 0
0.90625 0.65625 0
0.9375 0.65625 0
0.90625 0.6875 0
0.9375 0.6875 0
0.9375 0.625 0
0.96875 0.625 0
0.9375 0.65625 0
0.96875 0.65625 0
0.96875 0.625 0
1 0.625 0
0.96875 0.65625 0
1 0.65625 0
0.9375 0.65625 0
0.96875 0.65625 0
0.9375 0.6875 0
0.96875 0.6875 0
0.96875 0.65625 0
1 0.65625 0
0.96875 0.6875 0
1 0.6875 0
0.875 0.6875 0
0.90625 0.6875 0
0.875 0.71875 0
0.90625 0.71875 0
0.90625 0.6875 0
0.9375 0.6875 0
0.90625 0.71875 0
0.9375 0.71875 0
0.875 0.71875 0
0.90625 0.71875 0
0.875 0.75 0
0.90625 0.75 0
0.90625 0.71875 0
0.9375 0.71875 0
0.90625 0.75 0
0.9375 0.75 0
0.9375 0.6875 0
0.96875 0.6875 0
0.9375 0.71875 0
0.96875 0.71875 0
0.96875 0.6875 0
1 0.6875 0
0.96875 0.71875 0
1 0.71875 0
0.9375 0.71875 0
0.96875 0.71875 0
0.9375 0.75 0
0.96875 0.75 0
0.96875 0.71875 0
1 0.71875 0
0.96875 0.75 0
1 0.75 0
0.5 0.75 0
0.53125 0.75 0
0.5 0.78125 0
0.53125 0.78125 0
0.53125 0.75 0
0.5625 0.75 0
0.53125 0.78125 0
0.5625 0.78125 0
0.5 0.78125 0
0.53125 0.78125 0
0.5 0.8125 0
0.53125 0.8125 0
0.53125 0.78125 0
0.5625 0.78125 0
0.53125 0.8125 0
0.5625 0.8125 0
0.5625 0.75 0
0.59375 0.75 0
0.5625 0.78125 0
0.59375 0.78125 0
0.59375 0.75 0
0.625 0.75 0
0.59375 0.78125 0
0.625 0.78125 0
0.5625 0.78125 0
0.59375 0.78125 0
0.5625 0.8125 0
0.59375 0.8125 0
0.59375 0.78125 0
0.625 0.78125 0
0.59375 0.8125 0
0.625 0.8125 0
0.5 0.8125 0
0.53125 0.8125 0
0.5 0.84375 0
0.53125 0.84375 0
0.53125 0.8125 0
0.5625 0.8125 0
0.53125 0.84375 0
0.5625 0.84375 0
0.5 0.84375 0
0.53125 0.84375 0
0.5 0.875 0
0.53125 0.875 0
0.53125 0.84375 0
0.5625 0.84375 0
0.53125 0.875 0
0.5625 0.875 0
0.5625 0.8125 0
0.59375 0.8125 0
0.5625 0.84375 0
0.59375 0.84375 0
0.59375 0.8125 0
0.625 0.8125 0
0.59375 0.84375 0
0.625 0.84375 0
0.5625 0.84375 0
0.59375 0.84375 0
0.5625 0.875 0
0.59375 0.875 0
0.59375 0.84375 0
0.625 0.84375 0
0.59375 0.875 0
0.625 0.875 0
0.625 0.75 0
0.65625 0.75 0
0.625 0.78125 0
0.65625 0.78125 0
0.65625 0.75 0
0.6875 0.75 0
0.65625 0.78125 0
0.6875 0.78125 0
0.625 0.78125 0
0.65625 0.78125 0
0.625 0.8125 0
0.65625 0.8125 0
0.65625 0.78125 0
0.6875 0.78125 0
0.65625 0.8125 0
0.6875 0.8125 0
0.6875 0.75 0
0.71875 0.75 0
0.6875 0.78125 0
0.71875 0.78125 0
0.71875 0.75 0
0.75 0.75 0
0.71875 0.78125 0
0.75 0.78125 0
0.6875 0.78125 0
0.71875 0.78125 0
0.6875 0.8125 0
0.71875 0.8125 0
0.71875 0.78125 0
0.75 0.78125 0
0.71875 0.8125 0
0.75 0.8125 0
0.625 0.8125 0
0.65625 0.8125 0
0.625 0.84375 0
0.65625 0.84375 0
0.65625 0.8125 0
0.6875 0.8125 0
0.65625 0.84375 0
0.6875 0.84375 0
0.625 0.84375 0
0.65625 0.84375 0
0.625 0.875 0
0.65625 0.875 0
0.65625 0.84375 0
0.6875 0.84375 0
0.65625 0.875 0
0.6875 0.875 0
0.6875 0.8125 0
0.71875 0.8125 0
0.6875 0.84375 0
[...]
POINT_DATA 10144
SCALARS x_dis double 1
LOOKUP_TABLE default
-0.000221802 -0.000267567 -0.000293979 -0.000342913 -0.000267567 -0.000304332 -0.000342913 -0.00038375 -0.000293979 -0.000342913 -0.00035706 -0.000408637 -0.000342913 -0.00038375 -0.000408637 -0.00045279 -0.00035706 -0.000408637 -0.000411386 -0.000464966 -0.000408637 -0.00045279 -0.000464966 -0.000511723 -0.000411386 -0.000464966 -0.000456768 -0.000512038 -0.000464966 -0.000511723 -0.000512038 -0.000560799 -0.000327895 -0.000395079 -0.000363012 -0.000429956 -0.000395079 -0.000456768 -0.000429956 -0.000492161 -0.000363012 -0.000429956 -0.000387746 -0.000454429 -0.000429956 -0.000492161 -0.000454429 -0.000516665 -0.000456768 -0.000512038 -0.000492161 -0.000549252 -0.000512038 -0.000560799 -0.000549252 -0.000600291 -0.000492161 -0.000549252 -0.000516665 -0.000574743 -0.000549252 -0.000600291 -0.000574743 -0.000629459 0.000636519 0.000590084 0.000513534 0.000478481 0.000590084 0.000554039 0.000478481 0.000448915 0.000513534 0.000478481 0.000373179 0.000349984 0.000478481 0.000448915 0.000349984 0.000327951 0.000554039 0.00052585 0.000448915 0.000424794 0.00052585 0.000504347 0.000424794 0.00040577 0.000448915 0.000424794 0.000327951 0.00030874 0.000424794 0.00040577 0.00030874 0.000292875 0.000373179 0.000349984 0.000230954 0.000214453 0.000349984 0.000327951 0.000214453 0.000198294 0.000230954 0.000214453 9.12949e-05 7.8329e-05 0.000214453 0.000198294 7.8329e-05 6.57958e-05 0.000327951 0.00030874 0.000198294 0.000183473 0.00030874 0.000292875 0.000183473 0.000170723 0.000198294 0.000183473 6.57958e-05 5.41448e-05 0.000183473 0.000170723 5.41448e-05 4.39123e-05 0.000118268 0.000104642 -1.88273e-05 -3.12779e-05 0.000104642 9.12949e-05 -3.12779e-05 -4.31511e-05 -1.88273e-05 -3.12779e-05 -0.000144246 -0.000157895 -3.12779e-05 -4.31511e-05 -0.000157895 -0.00017017 -0.000109144 -0.000128242 -0.000213085 -0.000237339 -0.000128242 -0.000144246 -0.000237339 -0.000256928 -0.000213085 -0.000237339 -0.000304332 -0.000333593 -0.000237339 -0.000256928 -0.000333593 -0.000357461 -0.000144246 -0.000157895 -0.000256928 -0.000273451 -0.000157895 -0.00017017 -0.000273451 -0.000287632 -0.000256928 -0.000273451 -0.000357461 -0.000377386 -0.000273451 -0.000287632 -0.000377386 -0.000394263 9.12949e-05 7.8329e-05 -4.31511e-05 -5.45265e-05 7.8329e-05 6.57958e-05 -5.45265e-05 -6.5236e-05 -4.31511e-05 -5.45265e-05 -0.00017017 -0.000181398 -5.45265e-05 -6.5236e-05 -0.000181398 -0.0001916 6.57958e-05 5.41448e-05 -6.5236e-05 -7.50233e-05 5.41448e-05 4.39123e-05 -7.50233e-05 -8.35814e-05 -6.5236e-05 -7.50233e-05 -0.0001916 -0.000200662 -7.50233e-05 -8.35814e-05 -0.000200662 -0.000208412 -0.00017017 -0.000181398 -0.000287632 -0.000299997 -0.000181398 -0.0001916 -0.000299997 -0.000310793 -0.000287632 -0.000299997 -0.000394263 -0.000408641 -0.000299997 -0.000310793 -0.000408641 -0.000420864 -0.0001916 -0.000200662 -0.000310793 -0.000320074 -0.000200662 -0.000208412 -0.000320074 -0.000327798 -0.000310793 -0.000320074 -0.000420864 -0.000431109 -0.000320074 -0.000327798 -0.000431109 -0.000439449 0.000504347 0.000488882 0.00040577 0.000391446 0.000488882 0.000478939 0.000391446 0.000381394 0.00040577 0.000391446 0.000292875 0.000280418 0.000391446 0.000381394 0.000280418 0.000271209 0.000478939 0.000473912 0.000381394 0.000375114 0.000473912 0.000472981 0.000375114 0.000371986 0.000381394 0.000375114 0.000271209 0.000264972 0.000375114 0.000371986 0.000264972 0.000261351 0.000292875 0.000280418 0.000170723 0.000160373 0.000280418 0.000271209 0.000160373 0.0001525 0.000170723 0.000160373 4.39123e-05 3.5461e-05 0.000160373 0.0001525 3.5461e-05 2.89847e-05 0.000271209 0.000264972 0.0001525 0.000147046 0.000264972 0.000261351 0.000147046 0.000143878 0.0001525 0.000147046 2.89847e-05 2.45706e-05 0.000147046 0.000143878 2.45706e-05 2.22404e-05 0.000472981 0.000475025 0.000371986 0.000371257 0.000475025 0.000478576 0.000371257 0.000372039 0.000371986 0.000371257 0.000261351 0.000259919 0.000371257 0.000372039 0.000259919 0.000260167 0.000478576 0.000481849 0.000372039 0.000373337 0.000481849 0.000483212 0.000373337 0.000374012 0.000372039 0.000373337 0.000260167 0.000261412 0.000373337 0.000374012 0.000261412 0.000262418 0.000261351 0.000259919 0.000143878 0.000142803 0.000259919 0.000260167 0.000142803 0.000143519 0.000143878 0.000142803 2.22404e-05 2.19488e-05 0.000142803 0.000143519 2.19488e-05 2.35246e-05 0.000260167 0.000261412 0.000143519 0.000145468 0.000261412 0.000262418 0.000145468 0.000147507 0.000143519 0.000145468 2.35246e-05 2.65413e-05 0.000145468 0.000147507 2.65413e-05 3.0121e-05 4.39123e-05 3.5461e-05 -8.35814e-05 -9.06293e-05 3.5461e-05 2.89847e-05 -9.06293e-05 -9.59565e-05 -8.35814e-05 -9.06293e-05 -0.000208412 -0.000214672 -9.06293e-05 -9.59565e-05 -0.000214672 -0.000219264 2.89847e-05 2.45706e-05 -9.59565e-05 -9.94085e-05 2.45706e-05 2.22404e-05 -9.94085e-05 -0.000100874 -9.59565e-05 -9.94085e-05 -0.000219264 -0.000222021 -9.94085e-05 -0.000100874 -0.000222021 -0.000222786 -0.000208412 -0.000214672 -0.000327798 -0.000333881 -0.000214672 -0.000219264 -0.000333881 -0.000338201 -0.000327798 -0.000333881 -0.000439449 -0.000445889 -0.000333881 -0.000338201 -0.000445889 -0.000450366 -0.000219264 -0.000222021 -0.000338201 -0.000340606 -0.000222021 -0.000222786 -0.000340606 -0.000340913 -0.000338201 -0.000340606 -0.000450366 -0.000452752 -0.000340606 -0.000340913 -0.000452752 -0.000452854 2.22404e-05 2.19488e-05 -0.000100874 -0.0001003 2.19488e-05 2.35246e-05 -0.0001003 -9.77484e-05 -0.000100874 -0.0001003 -0.000222786 -0.000221435 -0.0001003 -9.77484e-05 -0.000221435 -0.000217918 2.35246e-05 2.65413e-05 -9.77484e-05 -9.34728e-05 2.65413e-05 3.0121e-05 -9.34728e-05 -8.80101e-05 -9.77484e-05 -9.34728e-05 -0.000217918 -0.000212297 -9.34728e-05 -8.80101e-05 -0.000212297 -0.000204761 -0.000222786 -0.000221435 -0.000340913 -0.000338942 -0.000221435 -0.000217918 -0.000338942 -0.000334533 -0.000340913 -0.000338942 -0.000452854 -0.000450436 -0.000338942 -0.000334533 -0.000450436 -0.00044524 -0.000217918 -0.000212297 -0.000334533 -0.000327559 -0.000212297 -0.000204761 -0.000327559 -0.000317888 -0.000334533 -0.000327559 -0.00044524 -0.000436961 -0.000327559 -0.000317888 -0.000436961 -0.000425202 -0.000304332 -0.000333593 -0.00038375 -0.000417641 -0.000333593 -0.000357461 -0.000417641 -0.000445771 -0.00038375 -0.000417641 -0.00045279 -0.00049033 -0.000417641 -0.000445771 -0.00049033 -0.00052221 -0.000357461 -0.000377386 -0.000445771 -0.000469377 -0.000377386 -0.000394263 -0.000469377 -0.000489331 -0.000445771 -0.000469377 -0.00052221 -0.000549345 -0.000469377 -0.000489331 -0.000549345 -0.000572427 -0.00045279 -0.00049033 -0.000511723 -0.000552138 -0.00049033 -0.00052221 -0.000552138 -0.000587101 -0.000511723 -0.000552138 -0.000560799 -0.000603356 -0.000552138 -0.000587101 -0.000603356 -0.00064058 -0.00052221 -0.000549345 -0.000587101 -0.000617346 -0.000549345 -0.000572427 -0.000617346 -0.000643356 -0.000587101 -0.000617346 -0.00064058 -0.000673519 -0.000617346 -0.000643356 -0.000673519 -0.000701992 -0.000394263 -0.000408641 -0.000489331 -0.000506202 -0.000408641 -0.000420864 -0.000506202 -0.000520371 -0.000489331 -0.000506202 -0.000572427 -0.00059195 -0.000506202 -0.000520371 -0.00059195 -0.000608281 -0.000420864 -0.000431109 -0.000520371 -0.000532087 -0.000431109 -0.000439449 -0.000532087 -0.000541506 -0.000520371 -0.000532087 -0.000608281 -0.000621719 -0.000532087 -0.000541506 -0.000621719 -0.000632482 -0.000572427 -0.00059195 -0.000643356 -0.000665397 -0.00059195 -0.000608281 -0.000665397 -0.000683839 -0.000643356 -0.000665397 -0.000701992 -0.000726194 -0.000665397 -0.000683839 -0.000726194 -0.000746405 -0.000608281 -0.000621719 -0.000683839 -0.000699012 -0.000621719 -0.000632482 -0.000699012 -0.000711196 -0.000683839 -0.000699012 -0.000746405 -0.000763166 -0.000699012 -0.000711196 -0.000763166 -0.000776708 -0.000560799 -0.000603356 -0.000600291 -0.000644013 -0.000603356 -0.00064058 -0.000644013 -0.000683026 -0.000600291 -0.000644013 -0.000629459 -0.000676289 -0.000644013 -0.000683026 -0.000676289 -0.000713991 -0.00064058 -0.000673519 -0.000683026 -0.000717848 -0.000673519 -0.000701992 -0.000717848 -0.000748449 -0.000683026 -0.000717848 -0.000713991 -0.00075246 -0.000717848 -0.000748449 -0.00075246 -0.000780841 -0.000713991 -0.00075246 -0.00073921 -0.000765703 -0.00075246 -0.000780841 -0.000765703 -0.000797131 -0.00073921 -0.000765703 -0.000702153 -0.00075815 -0.000765703 -0.000797131 -0.00075815 -0.000800714 -0.000701992 -0.000726194 -0.000748449 -0.000773723 -0.000726194 -0.000746405 -0.000773723 -0.000795376 -0.000748449 -0.000773723 -0.000780841 -0.000807177 -0.000773723 -0.000795376 -0.000807177 -0.000830233 -0.000746405 -0.000763166 -0.000795376 -0.000813529 -0.000763166 -0.000776708 -0.000813529 -0.000828287 -0.000795376 -0.000813529 -0.000830233 -0.000849629 -0.000813529 -0.000828287 -0.000849629 -0.000865407 -0.000780841 -0.000807177 -0.000797131 -0.000826231 -0.000807177 -0.000830233 -0.000826231 -0.000850842 -0.000797131 -0.000826231 -0.000800714 -0.000832105 -0.000826231 -0.000850842 -0.000832105 -0.000857604 -0.000830233 -0.000849629 -0.000850842 -0.000871256 -0.000849629 -0.000865407 -0.000871256 -0.000887759 -0.000850842 -0.000871256 -0.000857604 -0.000878443 -0.000871256 -0.000887759 -0.000878443 -0.000895219 -0.000439449 -0.000445889 -0.000541506 -0.000548711 -0.000445889 -0.000450366 -0.000548711 -0.000553688 -0.000541506 -0.000548711 -0.000632482 -0.000640707 -0.000548711 -0.000553688 -0.000640707 -0.000646416 -0.000450366 -0.000452752 -0.000553688 -0.000556335 -0.000452752 -0.000452854 -0.000556335 -0.000556448 -0.000553688 -0.000556335 -0.000646416 -0.000649522 -0.000556335 -0.000556448 -0.000649522 -0.00064981 -0.000632482 -0.000640707 -0.000711196 -0.000720546 -0.000640707 -0.000646416 -0.000720546 -0.000727102 -0.000711196 -0.000720546 -0.000776708 -0.000787168 -0.000720546 -0.000727102 -0.000787168 -0.000794579 -0.000646416 -0.000649522 -0.000727102 -0.000730779 -0.000649522 -0.00064981 -0.000730779 -0.000731346 -0.000727102 -0.000730779 -0.000794579 -0.000798854 -0.000730779 -0.000731346 -0.000798854 -0.000799746 -0.000452854 -0.000450436 -0.000556448 -0.000553745 -0.000450436 -0.00044524 -0.000553745 -0.000547877 -0.000556448 -0.000553745 -0.00064981 -0.000646957 -0.000553745 -0.000547877 -0.000646957 -0.000640534 -0.00044524 -0.000436961 -0.000547877 -0.00053839 -0.000436961 -0.000425202 -0.00053839 -0.000524671 -0.000547877 -0.00053839 -0.000640534 -0.000629966 -0.00053839 -0.000524671 -0.000629966 -0.000614477 -0.00064981 -0.000646957 -0.000731346 -0.000728443 -0.000646957 -0.000640534 -0.000728443 -0.000721577 -0.000731346 -0.000728443 -0.000799746 -0.00079686 -0.000728443 -0.000721577 -0.00079686 -0.000789651 -0.000640534 -0.000629966 -0.000721577 -0.000710076 -0.000629966 -0.000614477 -0.000710076 -0.000693049 -0.000721577 -0.000710076 -0.000789651 -0.000777378 -0.000710076 -0.000693049 -0.000777378 -0.000759072 -0.000776708 -0.000787168 -0.000828287 -0.000839747 -0.000787168 -0.000794579 -0.000839747 -0.000847936 -0.000828287 -0.000839747 -0.000865407 -0.00087768 -0.000839747 -0.000847936 -0.00087768 -0.000886495 -0.000794579 -0.000798854 -0.000847936 -0.000852764 -0.000798854 -0.000799746 -0.000852764 -0.000853973 -0.000847936 -0.000852764 -0.000886495 -0.000891771 -0.000852764 -0.000853973 -0.000891771 -0.000893246 -0.000865407 -0.00087768 -0.000887759 -0.000900577 -0.00087768 -0.000886495 -0.000900577 -0.000909801 -0.000887759 -0.000900577 -0.000895219 -0.000908231 -0.000900577 -0.000909801 -0.000908231 -0.000917597 -0.000886495 -0.000891771 -0.000909801 -0.000915367 -0.000891771 -0.000893246 -0.000915367 -0.000917017 -0.000909801 -0.000915367 -0.000917597 -0.000923262 -0.000915367 -0.000917017 -0.000923262 -0.000924973 -0.000799746 -0.00079686 -0.000853973 -0.000851139 -0.00079686 -0.000789651 -0.000851139 -0.000843677 -0.000853973 -0.000851139 -0.000893246 -0.000890471 -0.000851139 -0.000843677 -0.000890471 -0.000882836 -0.000789651 -0.000777378 -0.000843677 -0.000830801 -0.000777378 -0.000759072 -0.000830801 -0.000811489 -0.000843677 -0.000830801 -0.000882836 -0.000869528 -0.000830801 -0.000811489 -0.000869528 -0.000849492 -0.000893246 -0.000890471 -0.000917017 -0.000914289 -0.000890471 -0.000882836 -0.000914289 -0.000906555 -0.000917017 -0.000914289 -0.000924973 -0.000922264 -0.000914289 -0.000906555 -0.000922264 -0.000914499 -0.000882836 -0.000869528 -0.000906555 -0.000892988 -0.000869528 -0.000849492 -0.000892988 -0.000872517 -0.000906555 -0.000892988 -0.000914499 -0.000900845 -0.000892988 -0.000872517 -0.000900845 -0.000880229 -0.000413748 -0.000475703 -0.000409327 -0.0004714 -0.000475703 -0.000532137 -0.0004714 -0.000527883 -0.000409327 -0.0004714 -0.000396058 -0.000458493 -0.0004714 -0.000527883 -0.000458493 -0.000515121 -0.000532137 -0.000582603 -0.000527883 -0.000578331 -0.000582603 -0.000626824 -0.000578331 -0.000622479 -0.000527883 -0.000578331 -0.000515121 -0.00056551 -0.000578331 -0.000622479 -0.00056551 -0.000609428 -0.000396058 -0.000458493 -0.00037401 -0.000437019 -0.000458493 -0.000515121 -0.000437019 -0.00049386 -0.00037401 -0.000437019 -0.000343317 -0.000407045 -0.000437019 -0.00049386 -0.000407045 -0.000464111 -0.000515121 -0.00056551 -0.00049386 -0.000544118 -0.00056551 -0.000609428 -0.000544118 -0.000587618 -0.00049386 -0.000544118 -0.000464111 -0.000514112 -0.000544118 -0.000587618 -0.000514112 -0.000556945 -0.000343317 -0.000407045 -0.000304098 -0.000368623 -0.000407045 -0.000464111 -0.000368623 -0.000425871 -0.000304098 -0.000368623 -0.000256334 -0.000321845 -0.000368623 -0.000425871 -0.000321845 -0.000379171 -0.000464111 -0.000514112 -0.000425871 -0.000475415 -0.000514112 -0.000556945 -0.000475415 -0.000517219 -0.000425871 -0.000475415 -0.000379171 -0.000427772 -0.000475415 -0.000517219 -0.000427772 -0.000468131 -0.000379171 -0.000427772 -0.000323516 -0.000370827 -0.000427772 -0.000468131 -0.000370827 -0.00040923 -0.000323516 -0.000370827 -0.000258838 -0.000304141 -0.000370827 -0.00040923 -0.000304141 -0.000339874 -0.000258838 -0.000304141 -0.000184274 -0.000226714 -0.000304141 -0.000339874 -0.000226714 -0.000259136 -0.000184274 -0.000226714 -9.84254e-05 -0.000137254 -0.000226714 -0.000259136 -0.000137254 -0.000165677 -0.000626824 -0.00066471 -0.000622479 -0.000660251 -0.00066471 -0.000696374 -0.000660251 -0.000691775 -0.000622479 -0.000660251 -0.000609428 -0.000646846 -0.000660251 -0.000691775 -0.000646846 -0.000677941 -0.000696374 -0.000722121 -0.000691775 -0.000717371 -0.000722121 -0.000742385 -0.000717371 -0.000737486 -0.000691775 -0.000717371 -0.000677941 -0.000703082 -0.000717371 -0.000737486 -0.000703082 -0.000722755 -0.000609428 -0.000646846 -0.000587618 -0.000624412 -0.000646846 -0.000677941 -0.000624412 -0.000654769 -0.000587618 -0.000624412 -0.000556945 -0.000592792 -0.000624412 -0.000654769 -0.000592792 -0.000622075 -0.000677941 -0.000703082 -0.000654769 -0.000679142 -0.000703082 -0.000722755 -0.000679142 -0.000698084 -0.000654769 -0.000679142 -0.000622075 -0.000645364 -0.000679142 -0.000698084 -0.000645364 -0.000663303 -0.000742385 -0.000757668 -0.000737486 -0.000752635 -0.000757668 -0.000768509 -0.000752635 -0.000763361 -0.000737486 -0.000752635 -0.000722755 -0.000737503 -0.000752635 -0.000763361 -0.000737503 -0.000747893 -0.000768509 -0.000775445 -0.000763361 -0.000770206 -0.000775445 -0.000778981 -0.000770206 -0.000773676 -0.000763361 -0.000770206 -0.000747893 -0.000754474 -0.000770206 -0.000773676 -0.000754474 -0.000757758 -0.000722755 -0.000737503 -0.000698084 -0.000712186 -0.000737503 -0.000747893 -0.000712186 -0.00072204 -0.000698084 -0.000712186 -0.000663303 -0.000676544 -0.000712186 -0.00072204 -0.000676544 -0.000685711 -0.000747893 -0.000754474 -0.00072204 -0.000728213 -0.000754474 -0.000757758 -0.000728213 -0.000731218 -0.00072204 -0.000728213 -0.000685711 -0.000691381 -0.000728213 -0.000731218 -0.000691381 -0.000694064 -0.000556945 -0.000592792 -0.000517219 -0.000551741 -0.000592792 -0.000622075 -0.000551741 -0.000579584 -0.000517219 -0.000551741 -0.000468131 -0.000500893 -0.000551741 -0.000579584 -0.000500893 -0.000526923 -0.000622075 -0.000645364 -0.000579584 -0.00060148 -0.000645364 -0.000663303 -0.00060148 -0.000618184 -0.000579584 -0.00060148 -0.000526923 -0.000547155 -0.00060148 -0.000618184 -0.000547155 -0.000562468 -0.000468131 -0.000500893 -0.00040923 -0.000439748 -0.000500893 -0.000526923 -0.000439748 -0.000463617 -0.00040923 -0.000439748 -0.000339874 -0.000367648 -0.000439748 -0.000463617 -0.000367648 -0.000389109 -0.000526923 -0.000547155 -0.000463617 -0.000482006 -0.000547155 -0.000562468 -0.000482006 -0.000495898 -0.000463617 -0.000482006 -0.000389109 -0.000405649 -0.000482006 -0.000495898 -0.000405649 -0.000418301 -0.000663303 -0.000676544 -0.000618184 -0.000630411 -0.000676544 -0.000685711 -0.000630411 -0.000638811 -0.000618184 -0.000630411 -0.000562468 -0.000573625 -0.000630411 -0.000638811 -0.000573625 -0.000581284 -0.000685711 -0.000691381 -0.000638811 -0.000643959 -0.000691381 -0.000694064 -0.000643959 -0.000646351 -0.000638811 -0.000643959 -0.000581284 -0.000585999 -0.000643959 -0.000646351 -0.000585999 -0.000588231 -0.000562468 -0.000573625 -0.000495898 -0.000506078 -0.000573625 -0.000581284 -0.000506078 -0.000513171 -0.000495898 -0.000506078 -0.000418301 -0.000427795 -0.000506078 -0.000513171 -0.000427795 -0.000434685 -0.000581284 -0.000585999 -0.000513171 -0.00051768 -0.000585999 -0.000588231 -0.00051768 -0.000520009 -0.000513171 -0.00051768 -0.000434685 -0.000439387 -0.00051768 -0.000520009 -0.000439387 -0.000442213 -0.000778981 -0.000779559 -0.000773676 -0.000774215 -0.000779559 -0.00077753 -0.000774215 -0.000772171 -0.000773676 -0.000774215 -0.000757758 -0.000758187 -0.000774215 -0.000772171 -0.000758187 -0.000756107 -0.00077753 -0.000773135 -0.000772171 -0.000767785 -0.000773135 -0.000766477 -0.000767785 -0.000761159 -0.000772171 -0.000767785 -0.000756107 -0.000751755 -0.000767785 -0.000761159 -0.000751755 -0.000745226 -0.000757758 -0.000758187 -0.000731218 -0.000731493 -0.000758187 -0.000756107 -0.000731493 -0.000729378 -0.000731218 -0.000731493 -0.000694064 -0.000694187 -0.000731493 -0.000729378 -0.000694187 -0.000692078 -0.000756107 -0.000751755 -0.000729378 -0.000725101 -0.000751755 -0.000745226 -0.000725101 -0.000718747 -0.000729378 -0.000725101 -0.000692078 -0.000687947 -0.000725101 -0.000718747 -0.000687947 -0.000681866 -0.000766477 -0.0007575 -0.000761159 -0.000752233 -0.0007575 -0.00074596 -0.000752233 -0.000740763 -0.000761159 -0.000752233 -0.000745226 -0.000736455 -0.000752233 -0.000740763 -0.000736455 -0.000725196 -0.00074596 -0.000731422 -0.000740763 -0.000726311 -0.000731422 -0.000713241 -0.000726311 -0.000708227 -0.000740763 -0.000726311 -0.000725196 -0.000711003 -0.000726311 -0.000708227 -0.000711003 -0.000693212 -0.000745226 -0.000736455 -0.000718747 -0.000710245 -0.000736455 -0.000725196 -0.000710245 -0.000699341 -0.000718747 -0.000710245 -0.000681866 -0.000673754 -0.000710245 -0.000699341 -0.000673754 -0.000663356 -0.000725196 -0.000711003 -0.000699341 -0.000685582 -0.000711003 -0.000693212 -0.000685582 -0.00066829 -0.000699341 -0.000685582 -0.000663356 -0.000650212 -0.000685582 -0.00066829 -0.000650212 -0.000633635 -0.000694064 -0.000694187 -0.000646351 -0.000646392 -0.000694187 -0.000692078 -0.000646392 -0.000644384 -0.000646351 -0.000646392 -0.000588231 -0.000588346 -0.000646392 -0.000644384 -0.000588346 -0.000586606 -0.000692078 -0.000687947 -0.000644384 -0.000640512 -0.000687947 -0.000681866 -0.000640512 -0.00063483 -0.000644384 -0.000640512 -0.000586606 -0.00058316 -0.000640512 -0.00063483 -0.00058316 -0.000578039 -0.000588231 -0.000588346 -0.000520009 -0.00052046 -0.000588346 -0.000586606 -0.00052046 -0.000519238 -0.000520009 -0.00052046 -0.000442213 -0.000443378 -0.00052046 -0.000519238 -0.000443378 -0.000443017 -0.000586606 -0.00058316 -0.000519238 -0.000516448 -0.00058316 -0.000578039 -0.000516448 -0.000512093 -0.000519238 -0.000516448 -0.000443017 -0