# vtk DataFile Version 3.0
#This file was generated by the deal.II library on 2022/11/17 at 0:19:50
ASCII
DATASET UNSTRUCTURED_GRID

POINTS 4768 double
0 0.5 0
0.03125 0.5 0
0 0.53125 0
0.03125 0.53125 0
0.03125 0.5 0
0.0625 0.5 0
0.03125 0.53125 0
0.0625 0.53125 0
0 0.53125 0
0.03125 0.53125 0
0 0.5625 0
0.03125 0.5625 0
0.03125 0.53125 0
0.0625 0.53125 0
0.03125 0.5625 0
0.0625 0.5625 0
0.0625 0.5 0
0.09375 0.5 0
0.0625 0.53125 0
0.09375 0.53125 0
0.09375 0.5 0
0.125 0.5 0
0.09375 0.53125 0
0.125 0.53125 0
0.0625 0.53125 0
0.09375 0.53125 0
0.0625 0.5625 0
0.09375 0.5625 0
0.09375 0.53125 0
0.125 0.53125 0
0.09375 0.5625 0
0.125 0.5625 0
0 0.5625 0
0.03125 0.5625 0
0 0.59375 0
0.03125 0.59375 0
0.03125 0.5625 0
0.0625 0.5625 0
0.03125 0.59375 0
0.0625 0.59375 0
0 0.59375 0
0.03125 0.59375 0
0 0.625 0
0.03125 0.625 0
0.03125 0.59375 0
0.0625 0.59375 0
0.03125 0.625 0
0.0625 0.625 0
0.0625 0.5625 0
0.09375 0.5625 0
0.0625 0.59375 0
0.09375 0.59375 0
0.09375 0.5625 0
0.125 0.5625 0
0.09375 0.59375 0
0.125 0.59375 0
0.0625 0.59375 0
0.09375 0.59375 0
0.0625 0.625 0
0.09375 0.625 0
0.09375 0.59375 0
0.125 0.59375 0
0.09375 0.625 0
0.125 0.625 0
0.125 0.5 0
0.15625 0.5 0
0.125 0.53125 0
0.15625 0.53125 0
0.15625 0.5 0
0.1875 0.5 0
0.15625 0.53125 0
0.1875 0.53125 0
0.125 0.53125 0
0.15625 0.53125 0
0.125 0.5625 0
0.15625 0.5625 0
0.15625 0.53125 0
0.1875 0.53125 0
0.15625 0.5625 0
0.1875 0.5625 0
0.1875 0.5 0
0.21875 0.5 0
0.1875 0.53125 0
0.21875 0.53125 0
0.21875 0.5 0
0.25 0.5 0
0.21875 0.53125 0
0.25 0.53125 0
0.1875 0.53125 0
0.21875 0.53125 0
0.1875 0.5625 0
0.21875 0.5625 0
0.21875 0.53125 0
0.25 0.53125 0
0.21875 0.5625 0
0.25 0.5625 0
0.125 0.5625 0
0.15625 0.5625 0
0.125 0.59375 0
0.15625 0.59375 0
0.15625 0.5625 0
0.1875 0.5625 0
0.15625 0.59375 0
0.1875 0.59375 0
0.125 0.59375 0
0.15625 0.59375 0
0.125 0.625 0
0.15625 0.625 0
0.15625 0.59375 0
0.1875 0.59375 0
0.15625 0.625 0
0.1875 0.625 0
0.1875 0.5625 0
0.21875 0.5625 0
0.1875 0.59375 0
0.21875 0.59375 0
0.21875 0.5625 0
0.25 0.5625 0
0.21875 0.59375 0
0.25 0.59375 0
0.1875 0.59375 0
0.21875 0.59375 0
0.1875 0.625 0
0.21875 0.625 0
0.21875 0.59375 0
0.25 0.59375 0
0.21875 0.625 0
0.25 0.625 0
0 0.625 0
0.03125 0.625 0
0 0.65625 0
0.03125 0.65625 0
0.03125 0.625 0
0.0625 0.625 0
0.03125 0.65625 0
0.0625 0.65625 0
0 0.65625 0
0.03125 0.65625 0
0 0.6875 0
0.03125 0.6875 0
0.03125 0.65625 0
0.0625 0.65625 0
0.03125 0.6875 0
0.0625 0.6875 0
0.0625 0.625 0
0.09375 0.625 0
0.0625 0.65625 0
0.09375 0.65625 0
0.09375 0.625 0
0.125 0.625 0
0.09375 0.65625 0
0.125 0.65625 0
0.0625 0.65625 0
0.09375 0.65625 0
0.0625 0.6875 0
0.09375 0.6875 0
0.09375 0.65625 0
0.125 0.65625 0
0.09375 0.6875 0
0.125 0.6875 0
0 0.6875 0
0.03125 0.6875 0
0 0.71875 0
0.03125 0.71875 0
0.03125 0.6875 0
0.0625 0.6875 0
0.03125 0.71875 0
0.0625 0.71875 0
0 0.71875 0
0.03125 0.71875 0
0 0.75 0
0.03125 0.75 0
0.03125 0.71875 0
0.0625 0.71875 0
0.03125 0.75 0
0.0625 0.75 0
0.0625 0.6875 0
0.09375 0.6875 0
0.0625 0.71875 0
0.09375 0.71875 0
0.09375 0.6875 0
0.125 0.6875 0
0.09375 0.71875 0
0.125 0.71875 0
0.0625 0.71875 0
0.09375 0.71875 0
0.0625 0.75 0
0.09375 0.75 0
0.09375 0.71875 0
0.125 0.71875 0
0.09375 0.75 0
0.125 0.75 0
0.125 0.625 0
0.15625 0.625 0
0.125 0.65625 0
0.15625 0.65625 0
0.15625 0.625 0
0.1875 0.625 0
0.15625 0.65625 0
0.1875 0.65625 0
0.125 0.65625 0
0.15625 0.65625 0
0.125 0.6875 0
0.15625 0.6875 0
0.15625 0.65625 0
0.1875 0.65625 0
0.15625 0.6875 0
0.1875 0.6875 0
0.1875 0.625 0
0.21875 0.625 0
0.1875 0.65625 0
0.21875 0.65625 0
0.21875 0.625 0
0.25 0.625 0
0.21875 0.65625 0
0.25 0.65625 0
0.1875 0.65625 0
0.21875 0.65625 0
0.1875 0.6875 0
0.21875 0.6875 0
0.21875 0.65625 0
0.25 0.65625 0
0.21875 0.6875 0
0.25 0.6875 0
0.125 0.6875 0
0.15625 0.6875 0
0.125 0.71875 0
0.15625 0.71875 0
0.15625 0.6875 0
0.1875 0.6875 0
0.15625 0.71875 0
0.1875 0.71875 0
0.125 0.71875 0
0.15625 0.71875 0
0.125 0.75 0
0.15625 0.75 0
0.15625 0.71875 0
0.1875 0.71875 0
0.15625 0.75 0
0.1875 0.75 0
0.1875 0.6875 0
0.21875 0.6875 0
0.1875 0.71875 0
0.21875 0.71875 0
0.21875 0.6875 0
0.25 0.6875 0
0.21875 0.71875 0
0.25 0.71875 0
0.1875 0.71875 0
0.21875 0.71875 0
0.1875 0.75 0
0.21875 0.75 0
0.21875 0.71875 0
0.25 0.71875 0
0.21875 0.75 0
0.25 0.75 0
0.25 0.5 0
0.28125 0.5 0
0.25 0.53125 0
0.28125 0.53125 0
0.28125 0.5 0
0.3125 0.5 0
0.28125 0.53125 0
0.3125 0.53125 0
0.25 0.53125 0
0.28125 0.53125 0
0.25 0.5625 0
0.28125 0.5625 0
0.28125 0.53125 0
0.3125 0.53125 0
0.28125 0.5625 0
0.3125 0.5625 0
0.3125 0.5 0
0.34375 0.5 0
0.3125 0.53125 0
0.34375 0.53125 0
0.34375 0.5 0
0.375 0.5 0
0.34375 0.53125 0
0.375 0.53125 0
0.3125 0.53125 0
0.34375 0.53125 0
0.3125 0.5625 0
0.34375 0.5625 0
0.34375 0.53125 0
0.375 0.53125 0
0.34375 0.5625 0
0.375 0.5625 0
0.25 0.5625 0
0.28125 0.5625 0
0.25 0.59375 0
0.28125 0.59375 0
0.28125 0.5625 0
0.3125 0.5625 0
0.28125 0.59375 0
0.3125 0.59375 0
0.25 0.59375 0
0.28125 0.59375 0
0.25 0.625 0
0.28125 0.625 0
0.28125 0.59375 0
0.3125 0.59375 0
0.28125 0.625 0
0.3125 0.625 0
0.3125 0.5625 0
0.34375 0.5625 0
0.3125 0.59375 0
0.34375 0.59375 0
0.34375 0.5625 0
0.375 0.5625 0
0.34375 0.59375 0
0.375 0.59375 0
0.3125 0.59375 0
0.34375 0.59375 0
0.3125 0.625 0
0.34375 0.625 0
0.34375 0.59375 0
0.375 0.59375 0
0.34375 0.625 0
0.375 0.625 0
0.25 0.625 0
0.28125 0.625 0
0.25 0.65625 0
0.28125 0.65625 0
0.28125 0.625 0
0.3125 0.625 0
0.28125 0.65625 0
0.3125 0.65625 0
0.25 0.65625 0
0.28125 0.65625 0
0.25 0.6875 0
0.28125 0.6875 0
0.28125 0.65625 0
0.3125 0.65625 0
0.28125 0.6875 0
0.3125 0.6875 0
0.3125 0.625 0
0.34375 0.625 0
0.3125 0.65625 0
0.34375 0.65625 0
0.34375 0.625 0
0.375 0.625 0
0.34375 0.65625 0
0.375 0.65625 0
0.3125 0.65625 0
0.34375 0.65625 0
0.3125 0.6875 0
0.34375 0.6875 0
0.34375 0.65625 0
0.375 0.65625 0
0.34375 0.6875 0
0.375 0.6875 0
0.25 0.6875 0
0.28125 0.6875 0
0.25 0.71875 0
0.28125 0.71875 0
0.28125 0.6875 0
0.3125 0.6875 0
0.28125 0.71875 0
0.3125 0.71875 0
0.25 0.71875 0
0.28125 0.71875 0
0.25 0.75 0
0.28125 0.75 0
0.28125 0.71875 0
0.3125 0.71875 0
0.28125 0.75 0
0.3125 0.75 0
0.3125 0.6875 0
0.34375 0.6875 0
0.3125 0.71875 0
0.34375 0.71875 0
0.34375 0.6875 0
0.375 0.6875 0
0.34375 0.71875 0
0.375 0.71875 0
0.3125 0.71875 0
0.34375 0.71875 0
0.3125 0.75 0
0.34375 0.75 0
0.34375 0.71875 0
0.375 0.71875 0
0.34375 0.75 0
0.375 0.75 0
0.375 0.625 0
0.40625 0.625 0
0.375 0.65625 0
0.40625 0.65625 0
0.40625 0.625 0
0.4375 0.625 0
0.40625 0.65625 0
0.4375 0.65625 0
0.375 0.65625 0
0.40625 0.65625 0
0.375 0.6875 0
0.40625 0.6875 0
0.40625 0.65625 0
0.4375 0.65625 0
0.40625 0.6875 0
0.4375 0.6875 0
0.4375 0.625 0
0.46875 0.625 0
0.4375 0.65625 0
0.46875 0.65625 0
0.46875 0.625 0
0.5 0.625 0
0.46875 0.65625 0
0.5 0.65625 0
0.4375 0.65625 0
0.46875 0.65625 0
0.4375 0.6875 0
0.46875 0.6875 0
0.46875 0.65625 0
0.5 0.65625 0
0.46875 0.6875 0
0.5 0.6875 0
0.375 0.6875 0
0.40625 0.6875 0
0.375 0.71875 0
0.40625 0.71875 0
0.40625 0.6875 0
0.4375 0.6875 0
0.40625 0.71875 0
0.4375 0.71875 0
0.375 0.71875 0
0.40625 0.71875 0
0.375 0.75 0
0.40625 0.75 0
0.40625 0.71875 0
0.4375 0.71875 0
0.40625 0.75 0
0.4375 0.75 0
0.4375 0.6875 0
0.46875 0.6875 0
0.4375 0.71875 0
0.46875 0.71875 0
0.46875 0.6875 0
0.5 0.6875 0
0.46875 0.71875 0
0.5 0.71875 0
0.4375 0.71875 0
0.46875 0.71875 0
0.4375 0.75 0
0.46875 0.75 0
0.46875 0.71875 0
0.5 0.71875 0
0.46875 0.75 0
0.5 0.75 0
0 0.75 0
0.03125 0.75 0
0 0.78125 0
0.03125 0.78125 0
0.03125 0.75 0
0.0625 0.75 0
0.03125 0.78125 0
0.0625 0.78125 0
0 0.78125 0
0.03125 0.78125 0
0 0.8125 0
0.03125 0.8125 0
0.03125 0.78125 0
0.0625 0.78125 0
0.03125 0.8125 0
0.0625 0.8125 0
0.0625 0.75 0
0.09375 0.75 0
0.0625 0.78125 0
0.09375 0.78125 0
0.09375 0.75 0
0.125 0.75 0
0.09375 0.78125 0
0.125 0.78125 0
0.0625 0.78125 0
0.09375 0.78125 0
0.0625 0.8125 0
0.09375 0.8125 0
0.09375 0.78125 0
0.125 0.78125 0
0.09375 0.8125 0
0.125 0.8125 0
0 0.8125 0
0.03125 0.8125 0
0 0.84375 0
0.03125 0.84375 0
0.03125 0.8125 0
0.0625 0.8125 0
0.03125 0.84375 0
0.0625 0.84375 0
0 0.84375 0
0.03125 0.84375 0
0 0.875 0
0.03125 0.875 0
0.03125 0.84375 0
0.0625 0.84375 0
0.03125 0.875 0
0.0625 0.875 0
0.0625 0.8125 0
0.09375 0.8125 0
0.0625 0.84375 0
0.09375 0.84375 0
0.09375 0.8125 0
0.125 0.8125 0
0.09375 0.84375 0
0.125 0.84375 0
0.0625 0.84375 0
0.09375 0.84375 0
0.0625 0.875 0
0.09375 0.875 0
0.09375 0.84375 0
0.125 0.84375 0
0.09375 0.875 0
0.125 0.875 0
0.125 0.75 0
0.15625 0.75 0
0.125 0.78125 0
0.15625 0.78125 0
0.15625 0.75 0
0.1875 0.75 0
0.15625 0.78125 0
0.1875 0.78125 0
0.125 0.78125 0
0.15625 0.78125 0
0.125 0.8125 0
0.15625 0.8125 0
0.15625 0.78125 0
0.1875 0.78125 0
0.15625 0.8125 0
0.1875 0.8125 0
0.1875 0.75 0
0.21875 0.75 0
0.1875 0.78125 0
0.21875 0.78125 0
0.21875 0.75 0
0.25 0.75 0
0.21875 0.78125 0
0.25 0.78125 0
0.1875 0.78125 0
0.21875 0.78125 0
0.1875 0.8125 0
0.21875 0.8125 0
0.21875 0.78125 0
0.25 0.78125 0
0.21875 0.8125 0
0.25 0.8125 0
0.125 0.8125 0
0.15625 0.8125 0
0.125 0.84375 0
0.15625 0.84375 0
0.15625 0.8125 0
0.1875 0.8125 0
0.15625 0.84375 0
0.1875 0.84375 0
0.125 0.84375 0
0.15625 0.84375 0
0.125 0.875 0
0.15625 0.875 0
0.15625 0.84375 0
0.1875 0.84375 0
0.15625 0.875 0
0.1875 0.875 0
0.1875 0.8125 0
0.21875 0.8125 0
0.1875 0.84375 0
0.21875 0.84375 0
0.21875 0.8125 0
0.25 0.8125 0
0.21875 0.84375 0
0.25 0.84375 0
0.1875 0.84375 0
0.21875 0.84375 0
0.1875 0.875 0
0.21875 0.875 0
0.21875 0.84375 0
0.25 0.84375 0
0.21875 0.875 0
0.25 0.875 0
0.0625 0.875 0
0.09375 0.875 0
0.0625 0.90625 0
0.09375 0.90625 0
0.09375 0.875 0
0.125 0.875 0
0.09375 0.90625 0
0.125 0.90625 0
0.0625 0.90625 0
0.09375 0.90625 0
0.0625 0.9375 0
0.09375 0.9375 0
0.09375 0.90625 0
0.125 0.90625 0
0.09375 0.9375 0
0.125 0.9375 0
0.0625 0.9375 0
0.09375 0.9375 0
0.0625 0.96875 0
0.09375 0.96875 0
0.09375 0.9375 0
0.125 0.9375 0
0.09375 0.96875 0
0.125 0.96875 0
0.0625 0.96875 0
0.09375 0.96875 0
0.0625 1 0
0.09375 1 0
0.09375 0.96875 0
0.125 0.96875 0
0.09375 1 0
0.125 1 0
0.125 0.875 0
0.15625 0.875 0
0.125 0.90625 0
0.15625 0.90625 0
0.15625 0.875 0
[...]
POINT_DATA 4768
SCALARS x_dis double 1
LOOKUP_TABLE default
0.000897868 0.000851647 0.000880037 0.000833215 0.000851647 0.000803969 0.000833215 0.000785078 0.000880037 0.000833215 0.000853602 0.000805698 0.000833215 0.000785078 0.000805698 0.000756696 0.000803969 0.000756287 0.000785078 0.000737069 0.000756287 0.000709668 0.000737069 0.00069025 0.000785078 0.000737069 0.000756696 0.000707929 0.000737069 0.00069025 0.000707929 0.00066037 0.000853602 0.000805698 0.000819213 0.00076979 0.000805698 0.000756696 0.00076979 0.000719567 0.000819213 0.00076979 0.00077794 0.000726637 0.00076979 0.000719567 0.000726637 0.000674915 0.000756696 0.000707929 0.000719567 0.000669683 0.000707929 0.00066037 0.000669683 0.000620959 0.000719567 0.000669683 0.000674915 0.000623659 0.000669683 0.000620959 0.000623659 0.000573504 0.000709668 0.000664945 0.00069025 0.000645444 0.000664945 0.000622817 0.000645444 0.000603321 0.00069025 0.000645444 0.00066037 0.00061475 0.000645444 0.000603321 0.00061475 0.000571628 0.000622817 0.000583924 0.000603321 0.000564472 0.000583924 0.000548911 0.000564472 0.000529446 0.000603321 0.000564472 0.000571628 0.000531429 0.000564472 0.000529446 0.000531429 0.000494455 0.00066037 0.00061475 0.000620959 0.000573983 0.00061475 0.000571628 0.000573983 0.000529158 0.000620959 0.000573983 0.000573504 0.000524881 0.000573983 0.000529158 0.000524881 0.00047803 0.000571628 0.000531429 0.000529158 0.000486706 0.000531429 0.000494455 0.000486706 0.000446652 0.000529158 0.000486706 0.00047803 0.000433001 0.000486706 0.000446652 0.000433001 0.000389621 0.00077794 0.000726637 0.000731192 0.000677746 0.000726637 0.000674915 0.000677746 0.000624332 0.000731192 0.000677746 0.00068062 0.00062487 0.000677746 0.000624332 0.00062487 0.000569667 0.000674915 0.000623659 0.000624332 0.000571566 0.000623659 0.000573504 0.000571566 0.000519883 0.000624332 0.000571566 0.000569667 0.000515357 0.000571566 0.000519883 0.000515357 0.000462189 0.00068062 0.00062487 0.000628011 0.000569901 0.00062487 0.000569667 0.000569901 0.000512895 0.000628011 0.000569901 0.000575193 0.00051476 0.000569901 0.000512895 0.00051476 0.000456008 0.000569667 0.000515357 0.000512895 0.000457093 0.000515357 0.000462189 0.000457093 0.000402583 0.000512895 0.000457093 0.000456008 0.000398831 0.000457093 0.000402583 0.000398831 0.000343175 0.000573504 0.000524881 0.000519883 0.000469561 0.000524881 0.00047803 0.000469561 0.00042071 0.000519883 0.000469561 0.000462189 0.000410307 0.000469561 0.00042071 0.000410307 0.000359729 0.00047803 0.000433001 0.00042071 0.000373267 0.000433001 0.000389621 0.000373267 0.000326967 0.00042071 0.000373267 0.000359729 0.000310337 0.000373267 0.000326967 0.000310337 0.000261866 0.000462189 0.000410307 0.000402583 0.000349397 0.000410307 0.000359729 0.000349397 0.000297496 0.000402583 0.000349397 0.000343175 0.000288992 0.000349397 0.000297496 0.000288992 0.000236202 0.000359729 0.000310337 0.000297496 0.000246748 0.000310337 0.000261866 0.000246748 0.000196934 0.000297496 0.000246748 0.000236202 0.000184682 0.000246748 0.000196934 0.000184682 0.000134271 0.000548911 0.000518476 0.000529446 0.000498778 0.000518476 0.000493441 0.000498778 0.000472997 0.000529446 0.000498778 0.000494455 0.000460853 0.000498778 0.000472997 0.000460853 0.000430537 0.000493441 0.000474845 0.000472997 0.000452585 0.000474845 0.000464189 0.000452585 0.000437856 0.000472997 0.000452585 0.000430537 0.000403 0.000452585 0.000437856 0.000403 0.00037677 0.000494455 0.000460853 0.000446652 0.000408773 0.000460853 0.000430537 0.000408773 0.000372481 0.000446652 0.000408773 0.000389621 0.000347451 0.000408773 0.000372481 0.000347451 0.000305723 0.000430537 0.000403 0.000372481 0.000336641 0.000403 0.00037677 0.000336641 0.000299358 0.000372481 0.000336641 0.000305723 0.000263277 0.000336641 0.000299358 0.000263277 0.000218669 0.000389621 0.000347451 0.000326967 0.000281337 0.000347451 0.000305723 0.000281337 0.000235695 0.000326967 0.000281337 0.000261866 0.000213918 0.000281337 0.000235695 0.000213918 0.000166015 0.000305723 0.000263277 0.000235695 0.000189233 0.000263277 0.000218669 0.000189233 0.00014116 0.000235695 0.000189233 0.000166015 0.000117702 0.000189233 0.00014116 0.000117702 6.87598e-05 0.000261866 0.000213918 0.000196934 0.000147774 0.000213918 0.000166015 0.000147774 9.8994e-05 0.000196934 0.000147774 0.000134271 8.47996e-05 0.000147774 9.8994e-05 8.47996e-05 3.61509e-05 0.000166015 0.000117702 9.8994e-05 5.0432e-05 0.000117702 6.87598e-05 5.0432e-05 2.22099e-06 9.8994e-05 5.0432e-05 3.61509e-05 -1.16477e-05 5.0432e-05 2.22099e-06 -1.16477e-05 -5.83043e-05 0.000218669 0.000170456 0.00014116 9.1173e-05 0.000170456 0.000118339 9.1173e-05 4.04016e-05 0.00014116 9.1173e-05 6.87598e-05 1.95832e-05 9.1173e-05 4.04016e-05 1.95832e-05 -2.83671e-05 0.000118339 6.56009e-05 4.04016e-05 -7.78874e-06 6.56009e-05 2.03275e-05 -7.78874e-06 -4.80744e-05 4.04016e-05 -7.78874e-06 -2.83671e-05 -7.23749e-05 -7.78874e-06 -4.80744e-05 -7.23749e-05 -0.000108938 6.87598e-05 1.95832e-05 2.22099e-06 -4.49859e-05 1.95832e-05 -2.83671e-05 -4.49859e-05 -8.98291e-05 2.22099e-06 -4.49859e-05 -5.83043e-05 -0.000103141 -4.49859e-05 -8.98291e-05 -0.000103141 -0.000145035 -2.83671e-05 -7.23749e-05 -8.98291e-05 -0.000130271 -7.23749e-05 -0.000108938 -0.000130271 -0.000163977 -8.98291e-05 -0.000130271 -0.000145035 -0.000182499 -0.000130271 -0.000163977 -0.000182499 -0.000213945 0.000575193 0.00051476 0.000523949 0.000461312 0.00051476 0.000456008 0.000461312 0.000400931 0.000523949 0.000461312 0.000475957 0.000411306 0.000461312 0.000400931 0.000411306 0.000349445 0.000456008 0.000398831 0.000400931 0.000342528 0.000398831 0.000343175 0.000342528 0.000285943 0.000400931 0.000342528 0.000349445 0.000289982 0.000342528 0.000285943 0.000289982 0.000232675 0.000475957 0.000411306 0.000432775 0.000366319 0.000411306 0.000349445 0.000366319 0.00030315 0.000432775 0.000366319 0.000395601 0.000327811 0.000366319 0.00030315 0.000327811 0.000263428 0.000349445 0.000289982 0.00030315 0.000242785 0.000289982 0.000232675 0.000242785 0.000184938 0.00030315 0.000242785 0.000263428 0.000202311 0.000242785 0.000184938 0.000202311 0.000144054 0.000343175 0.000288992 0.000285943 0.000231063 0.000288992 0.000236202 0.000231063 0.000177782 0.000285943 0.000231063 0.000232675 0.000177359 0.000231063 0.000177782 0.000177359 0.000123903 0.000236202 0.000184682 0.000177782 0.000125985 0.000184682 0.000134271 0.000125985 7.55607e-05 0.000177782 0.000125985 0.000123903 7.21995e-05 0.000125985 7.55607e-05 7.21995e-05 2.21624e-05 0.000232675 0.000177359 0.000184938 0.000129387 0.000177359 0.000123903 0.000129387 7.59813e-05 0.000184938 0.000129387 0.000144054 8.84061e-05 0.000129387 7.59813e-05 8.84061e-05 3.51943e-05 0.000123903 7.21995e-05 7.59813e-05 2.46076e-05 7.21995e-05 2.21624e-05 2.46076e-05 -2.48143e-05 7.59813e-05 2.46076e-05 3.51943e-05 -1.57359e-05 2.46076e-05 -2.48143e-05 -1.57359e-05 -6.44629e-05 0.000263428 0.000202311 0.000231203 0.000169607 0.000202311 0.000144054 0.000169607 0.000111037 0.000231203 0.000169607 0.000207659 0.000145103 0.000169607 0.000111037 0.000145103 8.69105e-05 0.000207659 0.000145103 0.00019173 0.000131021 0.000145103 8.69105e-05 0.000131021 7.24718e-05 0.00019173 0.000131021 0.000191934 0.000127759 0.000131021 7.24718e-05 0.000127759 6.77785e-05 0.000144054 8.84061e-05 0.000111037 5.54672e-05 8.84061e-05 3.51943e-05 5.54672e-05 2.49787e-06 0.000111037 5.54672e-05 8.69105e-05 3.1404e-05 5.54672e-05 2.49787e-06 3.1404e-05 -2.13636e-05 3.51943e-05 -1.57359e-05 2.49787e-06 -4.79816e-05 -1.57359e-05 -6.44629e-05 -4.79816e-05 -9.60537e-05 2.49787e-06 -4.79816e-05 -2.13636e-05 -7.14742e-05 -4.79816e-05 -9.60537e-05 -7.14742e-05 -0.000119021 8.69105e-05 3.1404e-05 7.24718e-05 1.68094e-05 3.1404e-05 -2.13636e-05 1.68094e-05 -3.58691e-05 7.24718e-05 1.68094e-05 6.77785e-05 1.19451e-05 1.68094e-05 -3.58691e-05 1.19451e-05 -4.07327e-05 -2.13636e-05 -7.14742e-05 -3.58691e-05 -8.57506e-05 -7.14742e-05 -0.000119021 -8.57506e-05 -0.000132963 -3.58691e-05 -8.57506e-05 -4.07327e-05 -9.05387e-05 -8.57506e-05 -0.000132963 -9.05387e-05 -0.000137637 0.000134271 8.47996e-05 7.55607e-05 2.64193e-05 8.47996e-05 3.61509e-05 2.64193e-05 -2.1456e-05 7.55607e-05 2.64193e-05 2.21624e-05 -2.62521e-05 2.64193e-05 -2.1456e-05 -2.62521e-05 -7.3013e-05 3.61509e-05 -1.16477e-05 -2.1456e-05 -6.79451e-05 -1.16477e-05 -5.83043e-05 -6.79451e-05 -0.000112717 -2.1456e-05 -6.79451e-05 -7.3013e-05 -0.000117973 -6.79451e-05 -0.000112717 -0.000117973 -0.000160827 2.21624e-05 -2.62521e-05 -2.48143e-05 -7.23118e-05 -2.62521e-05 -7.3013e-05 -7.23118e-05 -0.000117843 -2.48143e-05 -7.23118e-05 -6.44629e-05 -0.000111017 -7.23118e-05 -0.000117843 -0.000111017 -0.000155366 -7.3013e-05 -0.000117973 -0.000117843 -0.000161273 -0.000117973 -0.000160827 -0.000161273 -0.000202349 -0.000117843 -0.000161273 -0.000155366 -0.000197407 -0.000161273 -0.000202349 -0.000197407 -0.000236946 -5.83043e-05 -0.000103141 -0.000112717 -0.000155174 -0.000103141 -0.000145035 -0.000155174 -0.000194438 -0.000112717 -0.000155174 -0.000160827 -0.000201088 -0.000155174 -0.000194438 -0.000201088 -0.000238096 -0.000145035 -0.000182499 -0.000194438 -0.000229439 -0.000182499 -0.000213945 -0.000229439 -0.000259084 -0.000194438 -0.000229439 -0.000238096 -0.000271086 -0.000229439 -0.000259084 -0.000271086 -0.000299306 -0.000160827 -0.000201088 -0.000202349 -0.000240696 -0.000201088 -0.000238096 -0.000240696 -0.000275831 -0.000202349 -0.000240696 -0.000236946 -0.000273708 -0.000240696 -0.000275831 -0.000273708 -0.000307345 -0.000238096 -0.000271086 -0.000275831 -0.000307213 -0.000271086 -0.000299306 -0.000307213 -0.000334327 -0.000275831 -0.000307213 -0.000307345 -0.000337481 -0.000307213 -0.000334327 -0.000337481 -0.000363762 -6.44629e-05 -0.000111017 -9.60537e-05 -0.00014176 -0.000111017 -0.000155366 -0.00014176 -0.000185091 -9.60537e-05 -0.00014176 -0.000119021 -0.000164065 -0.00014176 -0.000185091 -0.000164065 -0.000206619 -0.000155366 -0.000197407 -0.000185091 -0.000225976 -0.000197407 -0.000236946 -0.000225976 -0.00026428 -0.000185091 -0.000225976 -0.000206619 -0.000246643 -0.000225976 -0.00026428 -0.000246643 -0.000284047 -0.000119021 -0.000164065 -0.000132963 -0.000177588 -0.000164065 -0.000206619 -0.000177588 -0.000219656 -0.000132963 -0.000177588 -0.000137637 -0.000182119 -0.000177588 -0.000219656 -0.000182119 -0.000224022 -0.000206619 -0.000246643 -0.000219656 -0.000259151 -0.000246643 -0.000284047 -0.000259151 -0.000296008 -0.000219656 -0.000259151 -0.000224022 -0.000263339 -0.000259151 -0.000296008 -0.000263339 -0.000300012 -0.000236946 -0.000273708 -0.00026428 -0.000299805 -0.000273708 -0.000307345 -0.000299805 -0.000332304 -0.00026428 -0.000299805 -0.000284047 -0.000318688 -0.000299805 -0.000332304 -0.000318688 -0.000350391 -0.000307345 -0.000337481 -0.000332304 -0.000361515 -0.000337481 -0.000363762 -0.000361515 -0.000387197 -0.000332304 -0.000361515 -0.000350391 -0.000378967 -0.000361515 -0.000387197 -0.000378967 -0.000404249 -0.000284047 -0.000318688 -0.000296008 -0.00033012 -0.000318688 -0.000350391 -0.00033012 -0.000361352 -0.000296008 -0.00033012 -0.000300012 -0.000333948 -0.00033012 -0.000361352 -0.000333948 -0.000365024 -0.000350391 -0.000378967 -0.000361352 -0.000389559 -0.000378967 -0.000404249 -0.000389559 -0.000414613 -0.000361352 -0.000389559 -0.000365024 -0.00039311 -0.000389559 -0.000414613 -0.00039311 -0.00041809 0.000584843 0.000533262 0.000349074 0.000354742 0.000533262 0.000487939 0.000354742 0.000348883 0.000349074 0.000354742 0.000180418 0.000201145 0.000354742 0.000348883 0.000201145 0.000215649 0.000180418 0.000201145 6.8475e-05 8.24482e-05 0.000201145 0.000215649 8.24482e-05 0.000100615 6.8475e-05 8.24482e-05 -1.69026e-05 -1.03175e-05 8.24482e-05 0.000100615 -1.03175e-05 4.43458e-06 0.000487939 0.000450458 0.000348883 0.000339091 0.000450458 0.000420629 0.000339091 0.000329034 0.000348883 0.000339091 0.000215649 0.000224327 0.000339091 0.000329034 0.000224327 0.000229426 0.000420629 0.00039796 0.000329034 0.000320525 0.00039796 0.000381898 0.000320525 0.000314372 0.000329034 0.000320525 0.000229426 0.000232738 0.000320525 0.000314372 0.000232738 0.000235441 0.000215649 0.000224327 0.000100615 0.000117174 0.000224327 0.000229426 0.000117174 0.00013089 0.000100615 0.000117174 4.43458e-06 2.17088e-05 0.000117174 0.00013089 2.17088e-05 3.84411e-05 0.000229426 0.000232738 0.00013089 0.000142063 0.000232738 0.000235441 0.000142063 0.000151307 0.00013089 0.000142063 3.84411e-05 5.347e-05 0.000142063 0.000151307 5.347e-05 6.65417e-05 2.03275e-05 -8.2366e-06 -4.80744e-05 -7.52793e-05 -8.2366e-06 -1.69026e-05 -7.52793e-05 -8.75342e-05 -4.80744e-05 -7.52793e-05 -0.000108938 -0.000134992 -7.52793e-05 -8.75342e-05 -0.000134992 -0.000149204 -1.69026e-05 -1.03175e-05 -8.75342e-05 -8.67022e-05 -1.03175e-05 4.43458e-06 -8.67022e-05 -7.68277e-05 -8.75342e-05 -8.67022e-05 -0.000149204 -0.000152438 -8.67022e-05 -7.68277e-05 -0.000152438 -0.000147154 -0.000108938 -0.000134992 -0.000163977 -0.000188988 -0.000134992 -0.000149204 -0.000188988 -0.000204397 -0.000163977 -0.000188988 -0.000213945 -0.000238079 -0.000188988 -0.000204397 -0.000238079 -0.000254282 -0.000149204 -0.000152438 -0.000204397 -0.000210633 -0.000152438 -0.000147154 -0.000210633 -0.000209232 -0.000204397 -0.000210633 -0.000254282 -0.000262791 -0.000210633 -0.000209232 -0.000262791 -0.000264612 4.43458e-06 2.17088e-05 -7.68277e-05 -6.22262e-05 2.17088e-05 3.84411e-05 -6.22262e-05 -4.61001e-05 -7.68277e-05 -6.22262e-05 -0.000147154 -0.000136319 -6.22262e-05 -4.61001e-05 -0.000136319 -0.000122663 3.84411e-05 5.347e-05 -4.61001e-05 -3.03342e-05 5.347e-05 6.65417e-05 -3.03342e-05 -1.58705e-05 -4.61001e-05 -3.03342e-05 -0.000122663 -0.000108188 -3.03342e-05 -1.58705e-05 -0.000108188 -9.41786e-05 -0.000147154 -0.000136319 -0.000209232 -0.00020225 -0.000136319 -0.000122663 -0.00020225 -0.000191816 -0.000209232 -0.00020225 -0.000264612 -0.00026119 -0.00020225 -0.000191816 -0.00026119 -0.000254127 -0.000122663 -0.000108188 -0.000191816 -0.00017975 -0.000108188 -9.41786e-05 -0.00017975 -0.000167408 -0.000191816 -0.00017975 -0.000254127 -0.00024497 -0.00017975 -0.000167408 -0.00024497 -0.000234978 0.000381898 0.000371828 0.000314372 0.00031081 0.000371828 0.000367022 0.00031081 0.000309717 0.000314372 0.00031081 0.000235441 0.000238193 0.00031081 0.000309717 0.000238193 0.000241275 0.000367022 0.000366574 0.000309717 0.00031071 0.000366574 0.000369386 0.00031071 0.000313212 0.000309717 0.00031071 0.000241275 0.000244711 0.00031071 0.000313212 0.000244711 0.000248344 0.000235441 0.000238193 0.000151307 0.000159156 0.000238193 0.000241275 0.000159156 0.000165975 0.000151307 0.000159156 6.65417e-05 7.77507e-05 0.000159156 0.000165975 7.77507e-05 8.72948e-05 0.000241275 0.000244711 0.000165975 0.000171979 0.000244711 0.000248344 0.000171979 0.000177262 0.000165975 0.000171979 8.72948e-05 9.53813e-05 0.000171979 0.000177262 9.53813e-05 0.000102186 0.000369386 0.00037416 0.000313212 0.000316495 0.00037416 0.000379418 0.000316495 0.000319732 0.000313212 0.000316495 0.000248344 0.000251895 0.000316495 0.000319732 0.000251895 0.000254984 0.000379418 0.000383525 0.000319732 0.000322048 0.000383525 0.000384998 0.000322048 0.000322552 0.000319732 0.000322048 0.000254984 0.000257099 0.000322048 0.000322552 0.000257099 0.000257288 0.000248344 0.000251895 0.000177262 0.000181814 0.000251895 0.000254984 0.000181814 0.000185503 0.000177262 0.000181814 0.000102186 0.00010782 0.000181814 0.000185503 0.00010782 0.000112275 0.000254984 0.000257099 0.000185503 0.000187973 0.000257099 0.000257288 0.000187973 0.000188422 0.000185503 0.000187973 0.000112275 0.00011533 0.000187973 0.000188422 0.00011533 0.000116422 6.65417e-05 7.77507e-05 -1.58705e-05 -3.08619e-06 7.77507e-05 8.72948e-05 -3.08619e-06 7.94762e-06 -1.58705e-05 -3.08619e-06 -9.41786e-05 -8.13428e-05 -3.08619e-06 7.94762e-06 -8.13428e-05 -7.00004e-05 8.72948e-05 9.53813e-05 7.94762e-06 1.73137e-05 9.53813e-05 0.000102186 1.73137e-05 2.5157e-05 7.94762e-06 1.73137e-05 -7.00004e-05 -6.02249e-05 1.73137e-05 2.5157e-05 -6.02249e-05 -5.19514e-05 -9.41786e-05 -8.13428e-05 -0.000167408 -0.000155654 -8.13428e-05 -7.00004e-05 -0.000155654 -0.000144969 -0.000167408 -0.000155654 -0.000234978 -0.00022504 -0.000155654 -0.000144969 -0.00022504 -0.000215699 -7.00004e-05 -6.02249e-05 -0.000144969 -0.000135557 -6.02249e-05 -5.19514e-05 -0.000135557 -0.000127434 -0.000144969 -0.000135557 -0.000215699 -0.000207241 -0.000135557 -0.000127434 -0.000207241 -0.000199739 0.000102186 0.00010782 2.5157e-05 3.16142e-05 0.00010782 0.000112275 3.16142e-05 3.67427e-05 2.5157e-05 3.16142e-05 -5.19514e-05 -4.50626e-05 3.16142e-05 3.67427e-05 -4.50626e-05 -3.94605e-05 0.000112275 0.00011533 3.67427e-05 4.04487e-05 0.00011533 0.000116422 4.04487e-05 4.24412e-05 3.67427e-05 4.04487e-05 -3.94605e-05 -3.51178e-05 4.04487e-05 4.24412e-05 -3.51178e-05 -3.20761e-05 -5.19514e-05 -4.50626e-05 -0.000127434 -0.000120512 -4.50626e-05 -3.94605e-05 -0.000120512 -0.000114661 -0.000127434 -0.000120512 -0.000199739 -0.000193122 -0.000120512 -0.000114661 -0.000193122 -0.000187226 -3.94605e-05 -3.51178e-05 -0.000114661 -0.000109741 -3.51178e-05 -3.20761e-05 -0.000109741 -0.000105583 -0.000114661 -0.000109741 -0.000187226 -0.000181807 -0.000109741 -0.000105583 -0.000181807 -0.000176526 -0.000213945 -0.000238079 -0.000259084 -0.000282506 -0.000238079 -0.000254282 -0.000282506 -0.000299284 -0.000259084 -0.000282506 -0.000299306 -0.000322172 -0.000282506 -0.000299284 -0.000322172 -0.000339407 -0.000254282 -0.000262791 -0.000299284 -0.00030957 -0.000262791 -0.000264612 -0.00030957 -0.000314049 -0.000299284 -0.00030957 -0.000339407 -0.00035112 -0.00030957 -0.000314049 -0.00035112 -0.000357803 -0.000299306 -0.000322172 -0.000334327 -0.000356782 -0.000322172 -0.000339407 -0.000356782 -0.0003744 -0.000334327 -0.000356782 -0.000363762 -0.00038593 -0.000356782 -0.0003744 -0.00038593 -0.00040388 -0.000339407 -0.00035112 -0.0003744 -0.000387277 -0.00035112 -0.000357803 -0.000387277 -0.000395778 -0.0003744 -0.000387277 -0.00040388 -0.000417699 -0.000387277 -0.000395778 -0.000417699 -0.000427672 -0.000264612 -0.00026119 -0.000314049 -0.000313778 -0.00026119 -0.000254127 -0.000313778 -0.000309942 -0.000314049 -0.000313778 -0.000357803 -0.00036023 -0.000313778 -0.000309942 -0.00036023 -0.000359325 -0.000254127 -0.00024497 -0.000309942 -0.000303797 -0.00024497 -0.000234978 -0.000303797 -0.000296441 -0.000309942 -0.000303797 -0.000359325 -0.000356053 -0.000303797 -0.000296441 -0.000356053 -0.000351338 -0.000357803 -0.00036023 -0.000395778 -0.000400479 -0.00036023 -0.000359325 -0.000400479 -0.000402102 -0.000395778 -0.000400479 -0.000427672 -0.000434237 -0.000400479 -0.000402102 -0.000434237 -0.000437955 -0.000359325 -0.000356053 -0.000402102 -0.000401416 -0.000356053 -0.000351338 -0.000401416 -0.000399156 -0.000402102 -0.000401416 -0.000437955 -0.000439453 -0.000401416 -0.000399156 -0.000439453 -0.000439327 -0.000363762 -0.00038593 -0.000387197 -0.00040918 -0.00038593 -0.00040388 -0.00040918 -0.000427407 -0.000387197 -0.00040918 -0.000404249 -0.000426123 -0.00040918 -0.000427407 -0.000426123 -0.000444563 -0.00040388 -0.000417699 -0.000427407 -0.000441963 -0.000417699 -0.000427672 -0.000441963 -0.000453078 -0.000427407 -0.000441963 -0.000444563 -0.000459652 -0.000441963 -0.000453078 -0.000459652 -0.000471584 -0.000404249 -0.000426123 -0.000414613 -0.000436431 -0.000426123 -0.000444563 -0.000436431 -0.000455006 -0.000414613 -0.000436431 -0.00041809 -0.000439892 -0.000436431 -0.000455006 -0.000439892 -0.000458512 -0.000444563 -0.000459652 -0.000455006 -0.000470417 -0.000459652 -0.000471584 -0.000470417 -0.000482842 -0.000455006 -0.000470417 -0.000458512 -0.000474032 -0.000470417 -0.000482842 -0.000474032 -0.000486621 -0.000427672 -0.000434237 -0.000453078 -0.000461097 -0.000434237 -0.000437955 -0.000461097 -0.000466465 -0.000453078 -0.000461097 -0.000471584 -0.000480644 -0.000461097 -0.000466465 -0.000480644 -0.000487201 