# vtk DataFile Version 3.0
#This file was generated by the deal.II library on 2022/11/17 at 0:45:34
ASCII
DATASET UNSTRUCTURED_GRID

POINTS 10192 double
0.4375 0.75 0
0.46875 0.75 0
0.4375 0.78125 0
0.46875 0.78125 0
0.46875 0.75 0
0.5 0.75 0
0.46875 0.78125 0
0.5 0.78125 0
0.4375 0.78125 0
0.46875 0.78125 0
0.4375 0.8125 0
0.46875 0.8125 0
0.46875 0.78125 0
0.5 0.78125 0
0.46875 0.8125 0
0.5 0.8125 0
0.4375 0.8125 0
0.46875 0.8125 0
0.4375 0.84375 0
0.46875 0.84375 0
0.46875 0.8125 0
0.5 0.8125 0
0.46875 0.84375 0
0.5 0.84375 0
0.4375 0.84375 0
0.46875 0.84375 0
0.4375 0.875 0
0.46875 0.875 0
0.46875 0.84375 0
0.5 0.84375 0
0.46875 0.875 0
0.5 0.875 0
0.375 0.875 0
0.40625 0.875 0
0.375 0.90625 0
0.40625 0.90625 0
0.40625 0.875 0
0.4375 0.875 0
0.40625 0.90625 0
0.4375 0.90625 0
0.375 0.90625 0
0.40625 0.90625 0
0.375 0.9375 0
0.40625 0.9375 0
0.40625 0.90625 0
0.4375 0.90625 0
0.40625 0.9375 0
0.4375 0.9375 0
0.4375 0.875 0
0.46875 0.875 0
0.4375 0.90625 0
0.46875 0.90625 0
0.46875 0.875 0
0.5 0.875 0
0.46875 0.90625 0
0.5 0.90625 0
0.4375 0.90625 0
0.46875 0.90625 0
0.4375 0.9375 0
0.46875 0.9375 0
0.46875 0.90625 0
0.5 0.90625 0
0.46875 0.9375 0
0.5 0.9375 0
0.625 0.5 0
0.65625 0.5 0
0.625 0.53125 0
0.65625 0.53125 0
0.65625 0.5 0
0.6875 0.5 0
0.65625 0.53125 0
0.6875 0.53125 0
0.625 0.53125 0
0.65625 0.53125 0
0.625 0.5625 0
0.65625 0.5625 0
0.65625 0.53125 0
0.6875 0.53125 0
0.65625 0.5625 0
0.6875 0.5625 0
0.6875 0.5 0
0.71875 0.5 0
0.6875 0.53125 0
0.71875 0.53125 0
0.71875 0.5 0
0.75 0.5 0
0.71875 0.53125 0
0.75 0.53125 0
0.6875 0.53125 0
0.71875 0.53125 0
0.6875 0.5625 0
0.71875 0.5625 0
0.71875 0.53125 0
0.75 0.53125 0
0.71875 0.5625 0
0.75 0.5625 0
0.625 0.5625 0
0.65625 0.5625 0
0.625 0.59375 0
0.65625 0.59375 0
0.65625 0.5625 0
0.6875 0.5625 0
0.65625 0.59375 0
0.6875 0.59375 0
0.625 0.59375 0
0.65625 0.59375 0
0.625 0.625 0
0.65625 0.625 0
0.65625 0.59375 0
0.6875 0.59375 0
0.65625 0.625 0
0.6875 0.625 0
0.6875 0.5625 0
0.71875 0.5625 0
0.6875 0.59375 0
0.71875 0.59375 0
0.71875 0.5625 0
0.75 0.5625 0
0.71875 0.59375 0
0.75 0.59375 0
0.6875 0.59375 0
0.71875 0.59375 0
0.6875 0.625 0
0.71875 0.625 0
0.71875 0.59375 0
0.75 0.59375 0
0.71875 0.625 0
0.75 0.625 0
0.5625 0.625 0
0.59375 0.625 0
0.5625 0.65625 0
0.59375 0.65625 0
0.59375 0.625 0
0.625 0.625 0
0.59375 0.65625 0
0.625 0.65625 0
0.5625 0.65625 0
0.59375 0.65625 0
0.5625 0.6875 0
0.59375 0.6875 0
0.59375 0.65625 0
0.625 0.65625 0
0.59375 0.6875 0
0.625 0.6875 0
0.5 0.6875 0
0.53125 0.6875 0
0.5 0.71875 0
0.53125 0.71875 0
0.53125 0.6875 0
0.5625 0.6875 0
0.53125 0.71875 0
0.5625 0.71875 0
0.5 0.71875 0
0.53125 0.71875 0
0.5 0.75 0
0.53125 0.75 0
0.53125 0.71875 0
0.5625 0.71875 0
0.53125 0.75 0
0.5625 0.75 0
0.5625 0.6875 0
0.59375 0.6875 0
0.5625 0.71875 0
0.59375 0.71875 0
0.59375 0.6875 0
0.625 0.6875 0
0.59375 0.71875 0
0.625 0.71875 0
0.5625 0.71875 0
0.59375 0.71875 0
0.5625 0.75 0
0.59375 0.75 0
0.59375 0.71875 0
0.625 0.71875 0
0.59375 0.75 0
0.625 0.75 0
0.625 0.625 0
0.65625 0.625 0
0.625 0.65625 0
0.65625 0.65625 0
0.65625 0.625 0
0.6875 0.625 0
0.65625 0.65625 0
0.6875 0.65625 0
0.625 0.65625 0
0.65625 0.65625 0
0.625 0.6875 0
0.65625 0.6875 0
0.65625 0.65625 0
0.6875 0.65625 0
0.65625 0.6875 0
0.6875 0.6875 0
0.6875 0.625 0
0.71875 0.625 0
0.6875 0.65625 0
0.71875 0.65625 0
0.71875 0.625 0
0.75 0.625 0
0.71875 0.65625 0
0.75 0.65625 0
0.6875 0.65625 0
0.71875 0.65625 0
0.6875 0.6875 0
0.71875 0.6875 0
0.71875 0.65625 0
0.75 0.65625 0
0.71875 0.6875 0
0.75 0.6875 0
0.625 0.6875 0
0.65625 0.6875 0
0.625 0.71875 0
0.65625 0.71875 0
0.65625 0.6875 0
0.6875 0.6875 0
0.65625 0.71875 0
0.6875 0.71875 0
0.625 0.71875 0
0.65625 0.71875 0
0.625 0.75 0
0.65625 0.75 0
0.65625 0.71875 0
0.6875 0.71875 0
0.65625 0.75 0
0.6875 0.75 0
0.6875 0.6875 0
0.71875 0.6875 0
0.6875 0.71875 0
0.71875 0.71875 0
0.71875 0.6875 0
0.75 0.6875 0
0.71875 0.71875 0
0.75 0.71875 0
0.6875 0.71875 0
0.71875 0.71875 0
0.6875 0.75 0
0.71875 0.75 0
0.71875 0.71875 0
0.75 0.71875 0
0.71875 0.75 0
0.75 0.75 0
0.75 0.5 0
0.78125 0.5 0
0.75 0.53125 0
0.78125 0.53125 0
0.78125 0.5 0
0.8125 0.5 0
0.78125 0.53125 0
0.8125 0.53125 0
0.75 0.53125 0
0.78125 0.53125 0
0.75 0.5625 0
0.78125 0.5625 0
0.78125 0.53125 0
0.8125 0.53125 0
0.78125 0.5625 0
0.8125 0.5625 0
0.8125 0.5 0
0.84375 0.5 0
0.8125 0.53125 0
0.84375 0.53125 0
0.84375 0.5 0
0.875 0.5 0
0.84375 0.53125 0
0.875 0.53125 0
0.8125 0.53125 0
0.84375 0.53125 0
0.8125 0.5625 0
0.84375 0.5625 0
0.84375 0.53125 0
0.875 0.53125 0
0.84375 0.5625 0
0.875 0.5625 0
0.75 0.5625 0
0.78125 0.5625 0
0.75 0.59375 0
0.78125 0.59375 0
0.78125 0.5625 0
0.8125 0.5625 0
0.78125 0.59375 0
0.8125 0.59375 0
0.75 0.59375 0
0.78125 0.59375 0
0.75 0.625 0
0.78125 0.625 0
0.78125 0.59375 0
0.8125 0.59375 0
0.78125 0.625 0
0.8125 0.625 0
0.8125 0.5625 0
0.84375 0.5625 0
0.8125 0.59375 0
0.84375 0.59375 0
0.84375 0.5625 0
0.875 0.5625 0
0.84375 0.59375 0
0.875 0.59375 0
0.8125 0.59375 0
0.84375 0.59375 0
0.8125 0.625 0
0.84375 0.625 0
0.84375 0.59375 0
0.875 0.59375 0
0.84375 0.625 0
0.875 0.625 0
0.875 0.5 0
0.90625 0.5 0
0.875 0.53125 0
0.90625 0.53125 0
0.90625 0.5 0
0.9375 0.5 0
0.90625 0.53125 0
0.9375 0.53125 0
0.875 0.53125 0
0.90625 0.53125 0
0.875 0.5625 0
0.90625 0.5625 0
0.90625 0.53125 0
0.9375 0.53125 0
0.90625 0.5625 0
0.9375 0.5625 0
0.9375 0.5 0
0.96875 0.5 0
0.9375 0.53125 0
0.96875 0.53125 0
0.96875 0.5 0
1 0.5 0
0.96875 0.53125 0
1 0.53125 0
0.9375 0.53125 0
0.96875 0.53125 0
0.9375 0.5625 0
0.96875 0.5625 0
0.96875 0.53125 0
1 0.53125 0
0.96875 0.5625 0
1 0.5625 0
0.875 0.5625 0
0.90625 0.5625 0
0.875 0.59375 0
0.90625 0.59375 0
0.90625 0.5625 0
0.9375 0.5625 0
0.90625 0.59375 0
0.9375 0.59375 0
0.875 0.59375 0
0.90625 0.59375 0
0.875 0.625 0
0.90625 0.625 0
0.90625 0.59375 0
0.9375 0.59375 0
0.90625 0.625 0
0.9375 0.625 0
0.9375 0.5625 0
0.96875 0.5625 0
0.9375 0.59375 0
0.96875 0.59375 0
0.96875 0.5625 0
1 0.5625 0
0.96875 0.59375 0
1 0.59375 0
0.9375 0.59375 0
0.96875 0.59375 0
0.9375 0.625 0
0.96875 0.625 0
0.96875 0.59375 0
1 0.59375 0
0.96875 0.625 0
1 0.625 0
0.75 0.625 0
0.78125 0.625 0
0.75 0.65625 0
0.78125 0.65625 0
0.78125 0.625 0
0.8125 0.625 0
0.78125 0.65625 0
0.8125 0.65625 0
0.75 0.65625 0
0.78125 0.65625 0
0.75 0.6875 0
0.78125 0.6875 0
0.78125 0.65625 0
0.8125 0.65625 0
0.78125 0.6875 0
0.8125 0.6875 0
0.8125 0.625 0
0.84375 0.625 0
0.8125 0.65625 0
0.84375 0.65625 0
0.84375 0.625 0
0.875 0.625 0
0.84375 0.65625 0
0.875 0.65625 0
0.8125 0.65625 0
0.84375 0.65625 0
0.8125 0.6875 0
0.84375 0.6875 0
0.84375 0.65625 0
0.875 0.65625 0
0.84375 0.6875 0
0.875 0.6875 0
0.75 0.6875 0
0.78125 0.6875 0
0.75 0.71875 0
0.78125 0.71875 0
0.78125 0.6875 0
0.8125 0.6875 0
0.78125 0.71875 0
0.8125 0.71875 0
0.75 0.71875 0
0.78125 0.71875 0
0.75 0.75 0
0.78125 0.75 0
0.78125 0.71875 0
0.8125 0.71875 0
0.78125 0.75 0
0.8125 0.75 0
0.8125 0.6875 0
0.84375 0.6875 0
0.8125 0.71875 0
0.84375 0.71875 0
0.84375 0.6875 0
0.875 0.6875 0
0.84375 0.71875 0
0.875 0.71875 0
0.8125 0.71875 0
0.84375 0.71875 0
0.8125 0.75 0
0.84375 0.75 0
0.84375 0.71875 0
0.875 0.71875 0
0.84375 0.75 0
0.875 0.75 0
0.875 0.625 0
0.90625 0.625 0
0.875 0.65625 0
0.90625 0.65625 0
0.90625 0.625 0
0.9375 0.625 0
0.90625 0.65625 0
0.9375 0.65625 0
0.875 0.65625 0
0.90625 0.65625 0
0.875 0.6875 0
0.90625 0.6875 0
0.90625 0.65625 0
0.9375 0.65625 0
0.90625 0.6875 0
0.9375 0.6875 0
0.9375 0.625 0
0.96875 0.625 0
0.9375 0.65625 0
0.96875 0.65625 0
0.96875 0.625 0
1 0.625 0
0.96875 0.65625 0
1 0.65625 0
0.9375 0.65625 0
0.96875 0.65625 0
0.9375 0.6875 0
0.96875 0.6875 0
0.96875 0.65625 0
1 0.65625 0
0.96875 0.6875 0
1 0.6875 0
0.875 0.6875 0
0.90625 0.6875 0
0.875 0.71875 0
0.90625 0.71875 0
0.90625 0.6875 0
0.9375 0.6875 0
0.90625 0.71875 0
0.9375 0.71875 0
0.875 0.71875 0
0.90625 0.71875 0
0.875 0.75 0
0.90625 0.75 0
0.90625 0.71875 0
0.9375 0.71875 0
0.90625 0.75 0
0.9375 0.75 0
0.9375 0.6875 0
0.96875 0.6875 0
0.9375 0.71875 0
0.96875 0.71875 0
0.96875 0.6875 0
1 0.6875 0
0.96875 0.71875 0
1 0.71875 0
0.9375 0.71875 0
0.96875 0.71875 0
0.9375 0.75 0
0.96875 0.75 0
0.96875 0.71875 0
1 0.71875 0
0.96875 0.75 0
1 0.75 0
0.5 0.75 0
0.53125 0.75 0
0.5 0.78125 0
0.53125 0.78125 0
0.53125 0.75 0
0.5625 0.75 0
0.53125 0.78125 0
0.5625 0.78125 0
0.5 0.78125 0
0.53125 0.78125 0
0.5 0.8125 0
0.53125 0.8125 0
0.53125 0.78125 0
0.5625 0.78125 0
0.53125 0.8125 0
0.5625 0.8125 0
0.5625 0.75 0
0.59375 0.75 0
0.5625 0.78125 0
0.59375 0.78125 0
0.59375 0.75 0
0.625 0.75 0
0.59375 0.78125 0
0.625 0.78125 0
0.5625 0.78125 0
0.59375 0.78125 0
0.5625 0.8125 0
0.59375 0.8125 0
0.59375 0.78125 0
0.625 0.78125 0
0.59375 0.8125 0
0.625 0.8125 0
0.5 0.8125 0
0.53125 0.8125 0
0.5 0.84375 0
0.53125 0.84375 0
0.53125 0.8125 0
0.5625 0.8125 0
0.53125 0.84375 0
0.5625 0.84375 0
0.5 0.84375 0
0.53125 0.84375 0
0.5 0.875 0
0.53125 0.875 0
0.53125 0.84375 0
0.5625 0.84375 0
0.53125 0.875 0
0.5625 0.875 0
0.5625 0.8125 0
0.59375 0.8125 0
0.5625 0.84375 0
0.59375 0.84375 0
0.59375 0.8125 0
0.625 0.8125 0
0.59375 0.84375 0
0.625 0.84375 0
0.5625 0.84375 0
0.59375 0.84375 0
0.5625 0.875 0
0.59375 0.875 0
0.59375 0.84375 0
0.625 0.84375 0
0.59375 0.875 0
0.625 0.875 0
0.625 0.75 0
0.65625 0.75 0
0.625 0.78125 0
0.65625 0.78125 0
0.65625 0.75 0
0.6875 0.75 0
0.65625 0.78125 0
0.6875 0.78125 0
0.625 0.78125 0
0.65625 0.78125 0
0.625 0.8125 0
0.65625 0.8125 0
0.65625 0.78125 0
0.6875 0.78125 0
0.65625 0.8125 0
0.6875 0.8125 0
0.6875 0.75 0
0.71875 0.75 0
0.6875 0.78125 0
0.71875 0.78125 0
0.71875 0.75 0
0.75 0.75 0
0.71875 0.78125 0
0.75 0.78125 0
0.6875 0.78125 0
0.71875 0.78125 0
0.6875 0.8125 0
0.71875 0.8125 0
0.71875 0.78125 0
0.75 0.78125 0
0.71875 0.8125 0
0.75 0.8125 0
0.625 0.8125 0
0.65625 0.8125 0
0.625 0.84375 0
0.65625 0.84375 0
0.65625 0.8125 0
0.6875 0.8125 0
0.65625 0.84375 0
0.6875 0.84375 0
0.625 0.84375 0
0.65625 0.84375 0
0.625 0.875 0
0.65625 0.875 0
0.65625 0.84375 0
0.6875 0.84375 0
0.65625 0.875 0
0.6875 0.875 0
0.6875 0.8125 0
0.71875 0.8125 0
0.6875 0.84375 0
[...]
POINT_DATA 10192
SCALARS x_dis double 1
LOOKUP_TABLE default
-0.000240212 -0.000269755 -0.000320612 -0.000354379 -0.000269755 -0.000291422 -0.000354379 -0.000380546 -0.000320612 -0.000354379 -0.00039069 -0.000428123 -0.000354379 -0.000380546 -0.000428123 -0.000458248 -0.00039069 -0.000428123 -0.000450748 -0.000491047 -0.000428123 -0.000458248 -0.000491047 -0.000524459 -0.000450748 -0.000491047 -0.000500401 -0.000542843 -0.000491047 -0.000524459 -0.000542843 -0.000578908 -0.000394618 -0.000450876 -0.000432156 -0.000488372 -0.000450876 -0.000500401 -0.000488372 -0.000538583 -0.000432156 -0.000488372 -0.000458517 -0.000514725 -0.000488372 -0.000538583 -0.000514725 -0.000565243 -0.000500401 -0.000542843 -0.000538583 -0.000582665 -0.000542843 -0.000578908 -0.000582665 -0.000620774 -0.000538583 -0.000582665 -0.000565243 -0.000610082 -0.000582665 -0.000620774 -0.000610082 -0.000649188 0.000650215 0.000605224 0.000546291 0.000512945 0.000605224 0.000573052 0.000512945 0.000485615 0.000546291 0.000512945 0.000419672 0.000398636 0.000512945 0.000485615 0.000398636 0.000378197 0.000573052 0.000550175 0.000485615 0.000464196 0.000550175 0.000534481 0.000464196 0.000448152 0.000485615 0.000464196 0.000378197 0.000360321 0.000464196 0.000448152 0.000360321 0.000345744 0.000419672 0.000398636 0.000287937 0.000273368 0.000398636 0.000378197 0.000273368 0.000258441 0.000287937 0.000273368 0.000154963 0.000143872 0.000273368 0.000258441 0.000143872 0.000132462 0.000378197 0.000360321 0.000258441 0.000244275 0.000360321 0.000345744 0.000244275 0.000231903 0.000258441 0.000244275 0.000132462 0.00012125 0.000244275 0.000231903 0.00012125 0.000111044 0.000176937 0.000165764 3.94624e-05 3.14063e-05 0.000165764 0.000154963 3.14063e-05 2.29198e-05 3.94624e-05 3.14063e-05 -9.06657e-05 -9.79166e-05 3.14063e-05 2.29198e-05 -9.79166e-05 -0.000105421 -7.49736e-05 -8.31305e-05 -0.000189686 -0.0002014 -8.31305e-05 -9.06657e-05 -0.0002014 -0.000210771 -0.000189686 -0.0002014 -0.000291422 -0.000307383 -0.0002014 -0.000210771 -0.000307383 -0.000319929 -9.06657e-05 -9.79166e-05 -0.000210771 -0.000219176 -9.79166e-05 -0.000105421 -0.000219176 -0.000227155 -0.000210771 -0.000219176 -0.000319929 -0.00033052 -0.000219176 -0.000227155 -0.00033052 -0.000339956 0.000154963 0.000143872 2.29198e-05 1.39796e-05 0.000143872 0.000132462 1.39796e-05 4.71756e-06 2.29198e-05 1.39796e-05 -0.000105421 -0.000113278 1.39796e-05 4.71756e-06 -0.000113278 -0.000121311 0.000132462 0.00012125 4.71756e-06 -4.42728e-06 0.00012125 0.000111044 -4.42728e-06 -1.28697e-05 4.71756e-06 -4.42728e-06 -0.000121311 -0.000129161 -4.42728e-06 -1.28697e-05 -0.000129161 -0.000136352 -0.000105421 -0.000113278 -0.000227155 -0.000234978 -0.000113278 -0.000121311 -0.000234978 -0.00024263 -0.000227155 -0.000234978 -0.000339956 -0.000348625 -0.000234978 -0.00024263 -0.000348625 -0.000356633 -0.000121311 -0.000129161 -0.00024263 -0.000249866 -0.000129161 -0.000136352 -0.000249866 -0.000256328 -0.00024263 -0.000249866 -0.000356633 -0.000363869 -0.000249866 -0.000256328 -0.000363869 -0.000370098 0.000534481 0.000524602 0.000448152 0.000436853 0.000524602 0.00051958 0.000436853 0.000429661 0.000448152 0.000436853 0.000345744 0.000334623 0.000436853 0.000429661 0.000334623 0.000326796 0.00051958 0.000518606 0.000429661 0.000425915 0.000518606 0.000520809 0.000425915 0.0004249 0.000429661 0.000425915 0.000326796 0.000321925 0.000425915 0.0004249 0.000321925 0.000319571 0.000345744 0.000334623 0.000231903 0.000221897 0.000334623 0.000326796 0.000221897 0.000214466 0.000231903 0.000221897 0.000111044 0.00010249 0.000221897 0.000214466 0.00010249 9.59812e-05 0.000326796 0.000321925 0.000214466 0.000209582 0.000321925 0.000319571 0.000209582 0.000207071 0.000214466 0.000209582 9.59812e-05 9.16979e-05 0.000209582 0.000207071 9.16979e-05 8.9667e-05 0.000520809 0.000525097 0.0004249 0.000425812 0.000525097 0.000530078 0.000425812 0.000427749 0.0004249 0.000425812 0.000319571 0.000319229 0.000425812 0.000427749 0.000319229 0.000320317 0.000530078 0.000534086 0.000427749 0.00042972 0.000534086 0.000535687 0.00042972 0.000430645 0.000427749 0.00042972 0.000320317 0.000322093 0.00042972 0.000430645 0.000322093 0.000323303 0.000319571 0.000319229 0.000207071 0.000206665 0.000319229 0.000320317 0.000206665 0.00020797 0.000207071 0.000206665 8.9667e-05 8.97897e-05 0.000206665 0.00020797 8.97897e-05 9.18061e-05 0.000320317 0.000322093 0.00020797 0.000210333 0.000322093 0.000323303 0.000210333 0.000212517 0.00020797 0.000210333 9.18061e-05 9.51751e-05 0.000210333 0.000212517 9.51751e-05 9.88715e-05 0.000111044 0.00010249 -1.28697e-05 -2.00355e-05 0.00010249 9.59812e-05 -2.00355e-05 -2.5485e-05 -1.28697e-05 -2.00355e-05 -0.000136352 -0.000142404 -2.00355e-05 -2.5485e-05 -0.000142404 -0.000146902 9.59812e-05 9.16979e-05 -2.5485e-05 -2.89295e-05 9.16979e-05 8.9667e-05 -2.89295e-05 -3.02137e-05 -2.5485e-05 -2.89295e-05 -0.000146902 -0.000149516 -2.89295e-05 -3.02137e-05 -0.000149516 -0.000150013 -0.000136352 -0.000142404 -0.000256328 -0.000261634 -0.000142404 -0.000146902 -0.000261634 -0.000265416 -0.000256328 -0.000261634 -0.000370098 -0.00037504 -0.000261634 -0.000265416 -0.00037504 -0.000378391 -0.000146902 -0.000149516 -0.000265416 -0.000267344 -0.000149516 -0.000150013 -0.000267344 -0.000267138 -0.000265416 -0.000267344 -0.000378391 -0.000379839 -0.000267344 -0.000267138 -0.000379839 -0.000379072 8.9667e-05 8.97897e-05 -3.02137e-05 -2.93119e-05 8.97897e-05 9.18061e-05 -2.93119e-05 -2.63585e-05 -3.02137e-05 -2.93119e-05 -0.000150013 -0.000148269 -2.93119e-05 -2.63585e-05 -0.000148269 -0.000144288 9.18061e-05 9.51751e-05 -2.63585e-05 -2.17254e-05 9.51751e-05 9.88715e-05 -2.17254e-05 -1.6123e-05 -2.63585e-05 -2.17254e-05 -0.000144288 -0.000138237 -2.17254e-05 -1.6123e-05 -0.000138237 -0.000130477 -0.000150013 -0.000148269 -0.000267138 -0.00026459 -0.000148269 -0.000144288 -0.00026459 -0.000259571 -0.000267138 -0.00026459 -0.000379072 -0.000375811 -0.00026459 -0.000259571 -0.000375811 -0.000369796 -0.000144288 -0.000138237 -0.000259571 -0.000252033 -0.000138237 -0.000130477 -0.000252033 -0.000241994 -0.000259571 -0.000252033 -0.000369796 -0.000360773 -0.000252033 -0.000241994 -0.000360773 -0.00034845 -0.000291422 -0.000307383 -0.000380546 -0.000400952 -0.000307383 -0.000319929 -0.000400952 -0.000417166 -0.000380546 -0.000400952 -0.000458248 -0.000482464 -0.000400952 -0.000417166 -0.000482464 -0.000502145 -0.000319929 -0.00033052 -0.000417166 -0.00043058 -0.00033052 -0.000339956 -0.00043058 -0.000442101 -0.000417166 -0.00043058 -0.000502145 -0.000518481 -0.00043058 -0.000442101 -0.000518481 -0.000532348 -0.000458248 -0.000482464 -0.000524459 -0.000551952 -0.000482464 -0.000502145 -0.000551952 -0.000574655 -0.000524459 -0.000551952 -0.000578908 -0.000609183 -0.000551952 -0.000574655 -0.000609183 -0.000634418 -0.000502145 -0.000518481 -0.000574655 -0.000593652 -0.000518481 -0.000532348 -0.000593652 -0.000609811 -0.000574655 -0.000593652 -0.000634418 -0.000655625 -0.000593652 -0.000609811 -0.000655625 -0.000673802 -0.000339956 -0.000348625 -0.000442101 -0.000452227 -0.000348625 -0.000356633 -0.000452227 -0.00046116 -0.000442101 -0.000452227 -0.000532348 -0.00054427 -0.000452227 -0.00046116 -0.00054427 -0.000554493 -0.000356633 -0.000363869 -0.00046116 -0.000468898 -0.000363869 -0.000370098 -0.000468898 -0.000475322 -0.00046116 -0.000468898 -0.000554493 -0.000563087 -0.000468898 -0.000475322 -0.000563087 -0.000570026 -0.000532348 -0.00054427 -0.000609811 -0.000623624 -0.00054427 -0.000554493 -0.000623624 -0.000635311 -0.000609811 -0.000623624 -0.000673802 -0.000689479 -0.000623624 -0.000635311 -0.000689479 -0.000702625 -0.000554493 -0.000563087 -0.000635311 -0.000644947 -0.000563087 -0.000570026 -0.000644947 -0.000652592 -0.000635311 -0.000644947 -0.000702625 -0.00071333 -0.000644947 -0.000652592 -0.00071333 -0.000721713 -0.000578908 -0.000609183 -0.000620774 -0.000653533 -0.000609183 -0.000634418 -0.000653533 -0.00068102 -0.000620774 -0.000653533 -0.000649188 -0.000683365 -0.000653533 -0.00068102 -0.000683365 -0.000713824 -0.000634418 -0.000655625 -0.00068102 -0.000703902 -0.000655625 -0.000673802 -0.000703902 -0.000723919 -0.00068102 -0.000703902 -0.000713824 -0.000738945 -0.000703902 -0.000723919 -0.000738945 -0.000760234 -0.000673802 -0.000689479 -0.000723919 -0.00074132 -0.000689479 -0.000702625 -0.00074132 -0.000755822 -0.000723919 -0.00074132 -0.000760234 -0.000779667 -0.00074132 -0.000755822 -0.000779667 -0.000793931 -0.000702625 -0.00071333 -0.000755822 -0.000767281 -0.00071333 -0.000721713 -0.000767281 -0.000776363 -0.000755822 -0.000767281 -0.000793931 -0.000806048 -0.000767281 -0.000776363 -0.000806048 -0.000815783 -0.000760234 -0.000779667 -0.000785451 -0.000800897 -0.000779667 -0.000793931 -0.000800897 -0.000816114 -0.000785451 -0.000800897 -0.000781664 -0.000804715 -0.000800897 -0.000816114 -0.000804715 -0.000823068 -0.000793931 -0.000806048 -0.000816114 -0.000829197 -0.000806048 -0.000815783 -0.000829197 -0.000839524 -0.000816114 -0.000829197 -0.000823068 -0.000836819 -0.000829197 -0.000839524 -0.000836819 -0.00084744 -0.000370098 -0.00037504 -0.000475322 -0.000480251 -0.00037504 -0.000378391 -0.000480251 -0.000483449 -0.000475322 -0.000480251 -0.000570026 -0.000575222 -0.000480251 -0.000483449 -0.000575222 -0.000578502 -0.000378391 -0.000379839 -0.000483449 -0.000484632 -0.000379839 -0.000379072 -0.000484632 -0.000483464 -0.000483449 -0.000484632 -0.000578502 -0.000579609 -0.000484632 -0.000483464 -0.000579609 -0.000578192 -0.000570026 -0.000575222 -0.000652592 -0.000658235 -0.000575222 -0.000578502 -0.000658235 -0.000661765 -0.000652592 -0.000658235 -0.000721713 -0.000727891 -0.000658235 -0.000661765 -0.000727891 -0.00073177 -0.000578502 -0.000579609 -0.000661765 -0.000662945 -0.000579609 -0.000578192 -0.000662945 -0.000661407 -0.000661765 -0.000662945 -0.00073177 -0.000733119 -0.000662945 -0.000661407 -0.000733119 -0.000731555 -0.000379072 -0.000375811 -0.000483464 -0.000479603 -0.000375811 -0.000369796 -0.000479603 -0.000472671 -0.000483464 -0.000479603 -0.000578192 -0.000573851 -0.000479603 -0.000472671 -0.000573851 -0.000566106 -0.000369796 -0.000360773 -0.000472671 -0.000462227 -0.000360773 -0.00034845 -0.000462227 -0.000447716 -0.000472671 -0.000462227 -0.000566106 -0.000554355 -0.000462227 -0.000447716 -0.000554355 -0.000537828 -0.000578192 -0.000573851 -0.000661407 -0.000656702 -0.000573851 -0.000566106 -0.000656702 -0.000648261 -0.000661407 -0.000656702 -0.000731555 -0.000726588 -0.000656702 -0.000648261 -0.000726588 -0.000717579 -0.000566106 -0.000554355 -0.000648261 -0.000635357 -0.000554355 -0.000537828 -0.000635357 -0.000617046 -0.000648261 -0.000635357 -0.000717579 -0.0007037 -0.000635357 -0.000617046 -0.0007037 -0.000683885 -0.000721713 -0.000727891 -0.000776363 -0.000783087 -0.000727891 -0.00073177 -0.000783087 -0.000787348 -0.000776363 -0.000783087 -0.000815783 -0.000823013 -0.000783087 -0.000787348 -0.000823013 -0.000827627 -0.00073177 -0.000733119 -0.000787348 -0.000788912 -0.000733119 -0.000731555 -0.000788912 -0.000787383 -0.000787348 -0.000788912 -0.000827627 -0.0008294 -0.000788912 -0.000787383 -0.0008294 -0.000827932 -0.000815783 -0.000823013 -0.000839524 -0.000847145 -0.000823013 -0.000827627 -0.000847145 -0.000852014 -0.000839524 -0.000847145 -0.00084744 -0.000855214 -0.000847145 -0.000852014 -0.000855214 -0.000860178 -0.000827627 -0.0008294 -0.000852014 -0.00085394 -0.0008294 -0.000827932 -0.00085394 -0.000852526 -0.000852014 -0.00085394 -0.000860178 -0.000862156 -0.00085394 -0.000852526 -0.000862156 -0.000860765 -0.000731555 -0.000726588 -0.000787383 -0.000782239 -0.000726588 -0.000717579 -0.000782239 -0.000772789 -0.000787383 -0.000782239 -0.000827932 -0.000822677 -0.000782239 -0.000772789 -0.000822677 -0.000812915 -0.000717579 -0.0007037 -0.000772789 -0.000758136 -0.0007037 -0.000683885 -0.000758136 -0.000737123 -0.000772789 -0.000758136 -0.000812915 -0.0007977 -0.000758136 -0.000737123 -0.0007977 -0.000775819 -0.000827932 -0.000822677 -0.000852526 -0.000847213 -0.000822677 -0.000812915 -0.000847213 -0.000837264 -0.000852526 -0.000847213 -0.000860765 -0.000855437 -0.000847213 -0.000837264 -0.000855437 -0.000845426 -0.000812915 -0.0007977 -0.000837264 -0.00082171 -0.0007977 -0.000775819 -0.00082171 -0.000799303 -0.000837264 -0.00082171 -0.000845426 -0.000829758 -0.00082171 -0.000799303 -0.000829758 -0.000807175 -0.00044186 -0.00050461 -0.000437269 -0.000500035 -0.00050461 -0.000561355 -0.000500035 -0.000556717 -0.000437269 -0.000500035 -0.000423544 -0.00048634 -0.000500035 -0.000556717 -0.00048634 -0.00054282 -0.000561355 -0.00061182 -0.000556717 -0.000607052 -0.00061182 -0.000655931 -0.000607052 -0.00065098 -0.000556717 -0.000607052 -0.00054282 -0.000592748 -0.000607052 -0.00065098 -0.000592748 -0.000636117 -0.000423544 -0.00048634 -0.000400797 -0.000463604 -0.00048634 -0.00054282 -0.000463604 -0.000519701 -0.000400797 -0.000463604 -0.000369177 -0.000431924 -0.000463604 -0.000519701 -0.000431924 -0.000487399 -0.00054282 -0.000592748 -0.000519701 -0.000568908 -0.000592748 -0.000636117 -0.000568908 -0.000611308 -0.000519701 -0.000568908 -0.000487399 -0.000535513 -0.000568908 -0.000611308 -0.000535513 -0.000576483 -0.000369177 -0.000431924 -0.00032887 -0.000391376 -0.000431924 -0.000487399 -0.000391376 -0.00044593 -0.00032887 -0.000391376 -0.000279841 -0.000342113 -0.000391376 -0.00044593 -0.000342113 -0.000395381 -0.000487399 -0.000535513 -0.00044593 -0.000492516 -0.000535513 -0.000576483 -0.000492516 -0.000531501 -0.00044593 -0.000492516 -0.000395381 -0.000439706 -0.000492516 -0.000531501 -0.000439706 -0.000476132 -0.000395381 -0.000439706 -0.000335115 -0.000376736 -0.000439706 -0.000476132 -0.000376736 -0.000410061 -0.000335115 -0.000376736 -0.000265271 -0.000303311 -0.000376736 -0.000410061 -0.000303311 -0.000332895 -0.000265271 -0.000303311 -0.000184916 -0.000218624 -0.000303311 -0.000332895 -0.000218624 -0.000244103 -0.000184916 -0.000218624 -9.26571e-05 -0.000121666 -0.000218624 -0.000244103 -0.000121666 -0.000142999 -0.000655931 -0.000693793 -0.00065098 -0.000688629 -0.000693793 -0.000725679 -0.000688629 -0.000720295 -0.00065098 -0.000688629 -0.000636117 -0.000673121 -0.000688629 -0.000720295 -0.000673121 -0.000704123 -0.000725679 -0.00075201 -0.000720295 -0.000746417 -0.00075201 -0.000773278 -0.000746417 -0.000767501 -0.000720295 -0.000746417 -0.000704123 -0.00072962 -0.000746417 -0.000767501 -0.00072962 -0.000750158 -0.000636117 -0.000673121 -0.000611308 -0.000647212 -0.000673121 -0.000704123 -0.000647212 -0.000677101 -0.000611308 -0.000647212 -0.000576483 -0.000610798 -0.000647212 -0.000677101 -0.000610798 -0.000639124 -0.000704123 -0.00072962 -0.000677101 -0.000701568 -0.00072962 -0.000750158 -0.000701568 -0.000721222 -0.000677101 -0.000701568 -0.000639124 -0.000662182 -0.000701568 -0.000721222 -0.000662182 -0.000680661 -0.000773278 -0.000789989 -0.000767501 -0.000784061 -0.000789989 -0.000802632 -0.000784061 -0.000796587 -0.000767501 -0.000784061 -0.000750158 -0.000766274 -0.000784061 -0.000796587 -0.000766274 -0.000778465 -0.000802632 -0.000811648 -0.000796587 -0.000805522 -0.000811648 -0.000817415 -0.000805522 -0.00081124 -0.000796587 -0.000805522 -0.000778465 -0.000787169 -0.000805522 -0.00081124 -0.000787169 -0.00079275 -0.000750158 -0.000766274 -0.000721222 -0.000736633 -0.000766274 -0.000778465 -0.000736633 -0.000748304 -0.000721222 -0.000736633 -0.000680661 -0.000695164 -0.000736633 -0.000748304 -0.000695164 -0.000706193 -0.000778465 -0.000787169 -0.000748304 -0.000756662 -0.000787169 -0.00079275 -0.000756662 -0.000762053 -0.000748304 -0.000756662 -0.000706193 -0.000714154 -0.000756662 -0.000762053 -0.000714154 -0.000719357 -0.000576483 -0.000610798 -0.000531501 -0.000563718 -0.000610798 -0.000639124 -0.000563718 -0.000590051 -0.000531501 -0.000563718 -0.000476132 -0.000505754 -0.000563718 -0.000590051 -0.000505754 -0.000529723 -0.000639124 -0.000662182 -0.000590051 -0.000611376 -0.000662182 -0.000680661 -0.000611376 -0.000628467 -0.000590051 -0.000611376 -0.000529723 -0.000549089 -0.000611376 -0.000628467 -0.000549089 -0.000564699 -0.000476132 -0.000505754 -0.000410061 -0.000436648 -0.000505754 -0.000529723 -0.000436648 -0.000458001 -0.000410061 -0.000436648 -0.000332895 -0.000356131 -0.000436648 -0.000458001 -0.000356131 -0.000374833 -0.000529723 -0.000549089 -0.000458001 -0.000475344 -0.000549089 -0.000564699 -0.000475344 -0.000489557 -0.000458001 -0.000475344 -0.000374833 -0.000390333 -0.000475344 -0.000489557 -0.000390333 -0.000403471 -0.000680661 -0.000695164 -0.000628467 -0.000641949 -0.000695164 -0.000706193 -0.000641949 -0.000652307 -0.000628467 -0.000641949 -0.000564699 -0.000577177 -0.000641949 -0.000652307 -0.000577177 -0.000586957 -0.000706193 -0.000714154 -0.000652307 -0.000659904 -0.000714154 -0.000719357 -0.000659904 -0.000664998 -0.000652307 -0.000659904 -0.000586957 -0.000594334 -0.000659904 -0.000664998 -0.000594334 -0.000599491 -0.000564699 -0.000577177 -0.000489557 -0.000501215 -0.000577177 -0.000586957 -0.000501215 -0.000510664 -0.000489557 -0.000501215 -0.000403471 -0.0004147 -0.000501215 -0.000510664 -0.0004147 -0.000424231 -0.000586957 -0.000594334 -0.000510664 -0.000518092 -0.000594334 -0.000599491 -0.000518092 -0.000523582 -0.000510664 -0.000518092 -0.000424231 -0.000432114 -0.000518092 -0.000523582 -0.000432114 -0.000438302 -0.000817415 -0.000820226 -0.00081124 -0.000814029 -0.000820226 -0.000820274 -0.000814029 -0.000814081 -0.00081124 -0.000814029 -0.00079275 -0.000795486 -0.000814029 -0.000814081 -0.000795486 -0.000795556 -0.000820274 -0.000817635 -0.000814081 -0.000811468 -0.000817635 -0.000812254 -0.000811468 -0.000806132 -0.000814081 -0.000811468 -0.000795556 -0.000793024 -0.000811468 -0.000806132 -0.000793024 -0.000787826 -0.00079275 -0.000795486 -0.000762053 -0.000764733 -0.000795486 -0.000795556 -0.000764733 -0.00076486 -0.000762053 -0.000764733 -0.000719357 -0.000722024 -0.000764733 -0.00076486 -0.000722024 -0.000722281 -0.000795556 -0.000793024 -0.00076486 -0.000762481 -0.000793024 -0.000787826 -0.000762481 -0.000757523 -0.00076486 -0.000762481 -0.000722281 -0.000720152 -0.000762481 -0.000757523 -0.000720152 -0.000715552 -0.000812254 -0.000803917 -0.000806132 -0.000797859 -0.000803917 -0.000792229 -0.000797859 -0.000786256 -0.000806132 -0.000797859 -0.000787826 -0.000779748 -0.000797859 -0.000786256 -0.000779748 -0.000768398 -0.000792229 -0.000776592 -0.000786256 -0.000770726 -0.000776592 -0.000756187 -0.000770726 -0.000750452 -0.000786256 -0.000770726 -0.000768398 -0.000753188 -0.000770726 -0.000750452 -0.000753188 -0.000733308 -0.000787826 -0.000779748 -0.000757523 -0.000749772 -0.000779748 -0.000768398 -0.000749772 -0.000738844 -0.000757523 -0.000749772 -0.000715552 -0.000708266 -0.000749772 -0.000738844 -0.000708266 -0.000697928 -0.000768398 -0.000753188 -0.000738844 -0.000724167 -0.000753188 -0.000733308 -0.000724167 -0.000704944 -0.000738844 -0.000724167 -0.000697928 -0.000683992 -0.000724167 -0.000704944 -0.000683992 -0.000665693 -0.000719357 -0.000722024 -0.000664998 -0.000667759 -0.000722024 -0.000722281 -0.000667759 -0.000668267 -0.000664998 -0.000667759 -0.000599491 -0.000602524 -0.000667759 -0.000668267 -0.000602524 -0.000603458 -0.000722281 -0.000720152 -0.000668267 -0.000666517 -0.000720152 -0.000715552 -0.000666517 -0.000662408 -0.000668267 -0.000666517 -0.000603458 -0.000602251 -0.000666517 -0.000662408 -0.000602251 -0.000598789 -0.000599491 -0.000602524 -0.000523582 -0.00052714 -0.000602524 -0.000603458 -0.00052714 -0.000528727 -0.000523582 -0.00052714 -0.000438302 -0.000442704 -0.00052714 -0.000528727 -0.000442704 -0.000445215 -0.000603458 -0.000602251 -0.000528727 -0.000528262 -0.000602251 -0.000598789 -0.000528262 -0.000525621 -0.000528727 -0.000528262 -0.000445215 -0.000445719 -0.000528262 -0.000525621 -0.000445719 -0.000444086 -0.000715552 -0.000708266 -0.000662408 -0.000655734 -0.000708266 -0.000697928 -0.000655734 -0.000646152 -0.000662408 -0.000655734 -0.000598789 -0.000592878 -0.000655734 -0.0006