# vtk DataFile Version 3.0
#This file was generated by the deal.II library on 2022/11/17 at 0:19:05
ASCII
DATASET UNSTRUCTURED_GRID

POINTS 4624 double
0 0.5 0
0.03125 0.5 0
0 0.53125 0
0.03125 0.53125 0
0.03125 0.5 0
0.0625 0.5 0
0.03125 0.53125 0
0.0625 0.53125 0
0 0.53125 0
0.03125 0.53125 0
0 0.5625 0
0.03125 0.5625 0
0.03125 0.53125 0
0.0625 0.53125 0
0.03125 0.5625 0
0.0625 0.5625 0
0.0625 0.5 0
0.09375 0.5 0
0.0625 0.53125 0
0.09375 0.53125 0
0.09375 0.5 0
0.125 0.5 0
0.09375 0.53125 0
0.125 0.53125 0
0.0625 0.53125 0
0.09375 0.53125 0
0.0625 0.5625 0
0.09375 0.5625 0
0.09375 0.53125 0
0.125 0.53125 0
0.09375 0.5625 0
0.125 0.5625 0
0 0.5625 0
0.03125 0.5625 0
0 0.59375 0
0.03125 0.59375 0
0.03125 0.5625 0
0.0625 0.5625 0
0.03125 0.59375 0
0.0625 0.59375 0
0 0.59375 0
0.03125 0.59375 0
0 0.625 0
0.03125 0.625 0
0.03125 0.59375 0
0.0625 0.59375 0
0.03125 0.625 0
0.0625 0.625 0
0.0625 0.5625 0
0.09375 0.5625 0
0.0625 0.59375 0
0.09375 0.59375 0
0.09375 0.5625 0
0.125 0.5625 0
0.09375 0.59375 0
0.125 0.59375 0
0.0625 0.59375 0
0.09375 0.59375 0
0.0625 0.625 0
0.09375 0.625 0
0.09375 0.59375 0
0.125 0.59375 0
0.09375 0.625 0
0.125 0.625 0
0.125 0.5 0
0.15625 0.5 0
0.125 0.53125 0
0.15625 0.53125 0
0.15625 0.5 0
0.1875 0.5 0
0.15625 0.53125 0
0.1875 0.53125 0
0.125 0.53125 0
0.15625 0.53125 0
0.125 0.5625 0
0.15625 0.5625 0
0.15625 0.53125 0
0.1875 0.53125 0
0.15625 0.5625 0
0.1875 0.5625 0
0.1875 0.5 0
0.21875 0.5 0
0.1875 0.53125 0
0.21875 0.53125 0
0.21875 0.5 0
0.25 0.5 0
0.21875 0.53125 0
0.25 0.53125 0
0.1875 0.53125 0
0.21875 0.53125 0
0.1875 0.5625 0
0.21875 0.5625 0
0.21875 0.53125 0
0.25 0.53125 0
0.21875 0.5625 0
0.25 0.5625 0
0.125 0.5625 0
0.15625 0.5625 0
0.125 0.59375 0
0.15625 0.59375 0
0.15625 0.5625 0
0.1875 0.5625 0
0.15625 0.59375 0
0.1875 0.59375 0
0.125 0.59375 0
0.15625 0.59375 0
0.125 0.625 0
0.15625 0.625 0
0.15625 0.59375 0
0.1875 0.59375 0
0.15625 0.625 0
0.1875 0.625 0
0.1875 0.5625 0
0.21875 0.5625 0
0.1875 0.59375 0
0.21875 0.59375 0
0.21875 0.5625 0
0.25 0.5625 0
0.21875 0.59375 0
0.25 0.59375 0
0.1875 0.59375 0
0.21875 0.59375 0
0.1875 0.625 0
0.21875 0.625 0
0.21875 0.59375 0
0.25 0.59375 0
0.21875 0.625 0
0.25 0.625 0
0 0.625 0
0.03125 0.625 0
0 0.65625 0
0.03125 0.65625 0
0.03125 0.625 0
0.0625 0.625 0
0.03125 0.65625 0
0.0625 0.65625 0
0 0.65625 0
0.03125 0.65625 0
0 0.6875 0
0.03125 0.6875 0
0.03125 0.65625 0
0.0625 0.65625 0
0.03125 0.6875 0
0.0625 0.6875 0
0.0625 0.625 0
0.09375 0.625 0
0.0625 0.65625 0
0.09375 0.65625 0
0.09375 0.625 0
0.125 0.625 0
0.09375 0.65625 0
0.125 0.65625 0
0.0625 0.65625 0
0.09375 0.65625 0
0.0625 0.6875 0
0.09375 0.6875 0
0.09375 0.65625 0
0.125 0.65625 0
0.09375 0.6875 0
0.125 0.6875 0
0 0.6875 0
0.03125 0.6875 0
0 0.71875 0
0.03125 0.71875 0
0.03125 0.6875 0
0.0625 0.6875 0
0.03125 0.71875 0
0.0625 0.71875 0
0 0.71875 0
0.03125 0.71875 0
0 0.75 0
0.03125 0.75 0
0.03125 0.71875 0
0.0625 0.71875 0
0.03125 0.75 0
0.0625 0.75 0
0.0625 0.6875 0
0.09375 0.6875 0
0.0625 0.71875 0
0.09375 0.71875 0
0.09375 0.6875 0
0.125 0.6875 0
0.09375 0.71875 0
0.125 0.71875 0
0.0625 0.71875 0
0.09375 0.71875 0
0.0625 0.75 0
0.09375 0.75 0
0.09375 0.71875 0
0.125 0.71875 0
0.09375 0.75 0
0.125 0.75 0
0.125 0.625 0
0.15625 0.625 0
0.125 0.65625 0
0.15625 0.65625 0
0.15625 0.625 0
0.1875 0.625 0
0.15625 0.65625 0
0.1875 0.65625 0
0.125 0.65625 0
0.15625 0.65625 0
0.125 0.6875 0
0.15625 0.6875 0
0.15625 0.65625 0
0.1875 0.65625 0
0.15625 0.6875 0
0.1875 0.6875 0
0.1875 0.625 0
0.21875 0.625 0
0.1875 0.65625 0
0.21875 0.65625 0
0.21875 0.625 0
0.25 0.625 0
0.21875 0.65625 0
0.25 0.65625 0
0.1875 0.65625 0
0.21875 0.65625 0
0.1875 0.6875 0
0.21875 0.6875 0
0.21875 0.65625 0
0.25 0.65625 0
0.21875 0.6875 0
0.25 0.6875 0
0.125 0.6875 0
0.15625 0.6875 0
0.125 0.71875 0
0.15625 0.71875 0
0.15625 0.6875 0
0.1875 0.6875 0
0.15625 0.71875 0
0.1875 0.71875 0
0.125 0.71875 0
0.15625 0.71875 0
0.125 0.75 0
0.15625 0.75 0
0.15625 0.71875 0
0.1875 0.71875 0
0.15625 0.75 0
0.1875 0.75 0
0.1875 0.6875 0
0.21875 0.6875 0
0.1875 0.71875 0
0.21875 0.71875 0
0.21875 0.6875 0
0.25 0.6875 0
0.21875 0.71875 0
0.25 0.71875 0
0.1875 0.71875 0
0.21875 0.71875 0
0.1875 0.75 0
0.21875 0.75 0
0.21875 0.71875 0
0.25 0.71875 0
0.21875 0.75 0
0.25 0.75 0
0.25 0.5 0
0.28125 0.5 0
0.25 0.53125 0
0.28125 0.53125 0
0.28125 0.5 0
0.3125 0.5 0
0.28125 0.53125 0
0.3125 0.53125 0
0.25 0.53125 0
0.28125 0.53125 0
0.25 0.5625 0
0.28125 0.5625 0
0.28125 0.53125 0
0.3125 0.53125 0
0.28125 0.5625 0
0.3125 0.5625 0
0.3125 0.5 0
0.34375 0.5 0
0.3125 0.53125 0
0.34375 0.53125 0
0.34375 0.5 0
0.375 0.5 0
0.34375 0.53125 0
0.375 0.53125 0
0.3125 0.53125 0
0.34375 0.53125 0
0.3125 0.5625 0
0.34375 0.5625 0
0.34375 0.53125 0
0.375 0.53125 0
0.34375 0.5625 0
0.375 0.5625 0
0.25 0.5625 0
0.28125 0.5625 0
0.25 0.59375 0
0.28125 0.59375 0
0.28125 0.5625 0
0.3125 0.5625 0
0.28125 0.59375 0
0.3125 0.59375 0
0.25 0.59375 0
0.28125 0.59375 0
0.25 0.625 0
0.28125 0.625 0
0.28125 0.59375 0
0.3125 0.59375 0
0.28125 0.625 0
0.3125 0.625 0
0.3125 0.5625 0
0.34375 0.5625 0
0.3125 0.59375 0
0.34375 0.59375 0
0.34375 0.5625 0
0.375 0.5625 0
0.34375 0.59375 0
0.375 0.59375 0
0.3125 0.59375 0
0.34375 0.59375 0
0.3125 0.625 0
0.34375 0.625 0
0.34375 0.59375 0
0.375 0.59375 0
0.34375 0.625 0
0.375 0.625 0
0.25 0.625 0
0.28125 0.625 0
0.25 0.65625 0
0.28125 0.65625 0
0.28125 0.625 0
0.3125 0.625 0
0.28125 0.65625 0
0.3125 0.65625 0
0.25 0.65625 0
0.28125 0.65625 0
0.25 0.6875 0
0.28125 0.6875 0
0.28125 0.65625 0
0.3125 0.65625 0
0.28125 0.6875 0
0.3125 0.6875 0
0.3125 0.625 0
0.34375 0.625 0
0.3125 0.65625 0
0.34375 0.65625 0
0.34375 0.625 0
0.375 0.625 0
0.34375 0.65625 0
0.375 0.65625 0
0.3125 0.65625 0
0.34375 0.65625 0
0.3125 0.6875 0
0.34375 0.6875 0
0.34375 0.65625 0
0.375 0.65625 0
0.34375 0.6875 0
0.375 0.6875 0
0.25 0.6875 0
0.28125 0.6875 0
0.25 0.71875 0
0.28125 0.71875 0
0.28125 0.6875 0
0.3125 0.6875 0
0.28125 0.71875 0
0.3125 0.71875 0
0.25 0.71875 0
0.28125 0.71875 0
0.25 0.75 0
0.28125 0.75 0
0.28125 0.71875 0
0.3125 0.71875 0
0.28125 0.75 0
0.3125 0.75 0
0.3125 0.6875 0
0.34375 0.6875 0
0.3125 0.71875 0
0.34375 0.71875 0
0.34375 0.6875 0
0.375 0.6875 0
0.34375 0.71875 0
0.375 0.71875 0
0.3125 0.71875 0
0.34375 0.71875 0
0.3125 0.75 0
0.34375 0.75 0
0.34375 0.71875 0
0.375 0.71875 0
0.34375 0.75 0
0.375 0.75 0
0.375 0.625 0
0.40625 0.625 0
0.375 0.65625 0
0.40625 0.65625 0
0.40625 0.625 0
0.4375 0.625 0
0.40625 0.65625 0
0.4375 0.65625 0
0.375 0.65625 0
0.40625 0.65625 0
0.375 0.6875 0
0.40625 0.6875 0
0.40625 0.65625 0
0.4375 0.65625 0
0.40625 0.6875 0
0.4375 0.6875 0
0.4375 0.625 0
0.46875 0.625 0
0.4375 0.65625 0
0.46875 0.65625 0
0.46875 0.625 0
0.5 0.625 0
0.46875 0.65625 0
0.5 0.65625 0
0.4375 0.65625 0
0.46875 0.65625 0
0.4375 0.6875 0
0.46875 0.6875 0
0.46875 0.65625 0
0.5 0.65625 0
0.46875 0.6875 0
0.5 0.6875 0
0.375 0.6875 0
0.40625 0.6875 0
0.375 0.71875 0
0.40625 0.71875 0
0.40625 0.6875 0
0.4375 0.6875 0
0.40625 0.71875 0
0.4375 0.71875 0
0.375 0.71875 0
0.40625 0.71875 0
0.375 0.75 0
0.40625 0.75 0
0.40625 0.71875 0
0.4375 0.71875 0
0.40625 0.75 0
0.4375 0.75 0
0.4375 0.6875 0
0.46875 0.6875 0
0.4375 0.71875 0
0.46875 0.71875 0
0.46875 0.6875 0
0.5 0.6875 0
0.46875 0.71875 0
0.5 0.71875 0
0.4375 0.71875 0
0.46875 0.71875 0
0.4375 0.75 0
0.46875 0.75 0
0.46875 0.71875 0
0.5 0.71875 0
0.46875 0.75 0
0.5 0.75 0
0 0.75 0
0.03125 0.75 0
0 0.78125 0
0.03125 0.78125 0
0.03125 0.75 0
0.0625 0.75 0
0.03125 0.78125 0
0.0625 0.78125 0
0 0.78125 0
0.03125 0.78125 0
0 0.8125 0
0.03125 0.8125 0
0.03125 0.78125 0
0.0625 0.78125 0
0.03125 0.8125 0
0.0625 0.8125 0
0.0625 0.75 0
0.09375 0.75 0
0.0625 0.78125 0
0.09375 0.78125 0
0.09375 0.75 0
0.125 0.75 0
0.09375 0.78125 0
0.125 0.78125 0
0.0625 0.78125 0
0.09375 0.78125 0
0.0625 0.8125 0
0.09375 0.8125 0
0.09375 0.78125 0
0.125 0.78125 0
0.09375 0.8125 0
0.125 0.8125 0
0 0.8125 0
0.03125 0.8125 0
0 0.84375 0
0.03125 0.84375 0
0.03125 0.8125 0
0.0625 0.8125 0
0.03125 0.84375 0
0.0625 0.84375 0
0 0.84375 0
0.03125 0.84375 0
0 0.875 0
0.03125 0.875 0
0.03125 0.84375 0
0.0625 0.84375 0
0.03125 0.875 0
0.0625 0.875 0
0.0625 0.8125 0
0.09375 0.8125 0
0.0625 0.84375 0
0.09375 0.84375 0
0.09375 0.8125 0
0.125 0.8125 0
0.09375 0.84375 0
0.125 0.84375 0
0.0625 0.84375 0
0.09375 0.84375 0
0.0625 0.875 0
0.09375 0.875 0
0.09375 0.84375 0
0.125 0.84375 0
0.09375 0.875 0
0.125 0.875 0
0.125 0.75 0
0.15625 0.75 0
0.125 0.78125 0
0.15625 0.78125 0
0.15625 0.75 0
0.1875 0.75 0
0.15625 0.78125 0
0.1875 0.78125 0
0.125 0.78125 0
0.15625 0.78125 0
0.125 0.8125 0
0.15625 0.8125 0
0.15625 0.78125 0
0.1875 0.78125 0
0.15625 0.8125 0
0.1875 0.8125 0
0.1875 0.75 0
0.21875 0.75 0
0.1875 0.78125 0
0.21875 0.78125 0
0.21875 0.75 0
0.25 0.75 0
0.21875 0.78125 0
0.25 0.78125 0
0.1875 0.78125 0
0.21875 0.78125 0
0.1875 0.8125 0
0.21875 0.8125 0
0.21875 0.78125 0
0.25 0.78125 0
0.21875 0.8125 0
0.25 0.8125 0
0.125 0.8125 0
0.15625 0.8125 0
0.125 0.84375 0
0.15625 0.84375 0
0.15625 0.8125 0
0.1875 0.8125 0
0.15625 0.84375 0
0.1875 0.84375 0
0.125 0.84375 0
0.15625 0.84375 0
0.125 0.875 0
0.15625 0.875 0
0.15625 0.84375 0
0.1875 0.84375 0
0.15625 0.875 0
0.1875 0.875 0
0.1875 0.8125 0
0.21875 0.8125 0
0.1875 0.84375 0
0.21875 0.84375 0
0.21875 0.8125 0
0.25 0.8125 0
0.21875 0.84375 0
0.25 0.84375 0
0.1875 0.84375 0
0.21875 0.84375 0
0.1875 0.875 0
0.21875 0.875 0
0.21875 0.84375 0
0.25 0.84375 0
0.21875 0.875 0
0.25 0.875 0
0 0.875 0
0.03125 0.875 0
0 0.90625 0
0.03125 0.90625 0
0.03125 0.875 0
0.0625 0.875 0
0.03125 0.90625 0
0.0625 0.90625 0
0 0.90625 0
0.03125 0.90625 0
0 0.9375 0
0.03125 0.9375 0
0.03125 0.90625 0
0.0625 0.90625 0
0.03125 0.9375 0
0.0625 0.9375 0
0.0625 0.875 0
0.09375 0.875 0
0.0625 0.90625 0
0.09375 0.90625 0
0.09375 0.875 0
0.125 0.875 0
0.09375 0.90625 0
0.125 0.90625 0
0.0625 0.90625 0
0.09375 0.90625 0
0.0625 0.9375 0
0.09375 0.9375 0
0.09375 0.90625 0
0.125 0.90625 0
0.09375 0.9375 0
0.125 0.9375 0
0 0.9375 0
0.03125 0.9375 0
0 0.96875 0
0.03125 0.96875 0
0.03125 0.9375 0
[...]
POINT_DATA 4624
SCALARS x_dis double 1
LOOKUP_TABLE default
0.000872886 0.000829163 0.000848853 0.000804534 0.000829163 0.000783674 0.000804534 0.000758672 0.000848853 0.000804534 0.000815787 0.000770377 0.000804534 0.000758672 0.000770377 0.000723733 0.000783674 0.000737935 0.000758672 0.000712774 0.000737935 0.000693076 0.000712774 0.000667965 0.000758672 0.000712774 0.000723733 0.000677251 0.000712774 0.000667965 0.000677251 0.000631966 0.000815787 0.000770377 0.000774432 0.000727481 0.000770377 0.000723733 0.000727481 0.000679696 0.000774432 0.000727481 0.00072596 0.000677098 0.000727481 0.000679696 0.000677098 0.000627886 0.000723733 0.000677251 0.000679696 0.000632273 0.000677251 0.000631966 0.000632273 0.000586092 0.000679696 0.000632273 0.000627886 0.000579264 0.000632273 0.000586092 0.000579264 0.000531921 0.000693076 0.000649989 0.000667965 0.000625124 0.000649989 0.000609422 0.000625124 0.000584971 0.000667965 0.000625124 0.000631966 0.000588666 0.000625124 0.000584971 0.000588666 0.000547957 0.000609422 0.000572049 0.000584971 0.000548128 0.000572049 0.000538528 0.000548128 0.000515159 0.000584971 0.000548128 0.000547957 0.000510303 0.000548128 0.000515159 0.000510303 0.000476029 0.000631966 0.000588666 0.000586092 0.000541798 0.000588666 0.000547957 0.000541798 0.000499841 0.000586092 0.000541798 0.000531921 0.000486335 0.000541798 0.000499841 0.000486335 0.000442796 0.000547957 0.000510303 0.000499841 0.000460486 0.000510303 0.000476029 0.000460486 0.000423791 0.000499841 0.000460486 0.000442796 0.000401391 0.000460486 0.000423791 0.000401391 0.000361983 0.00072596 0.000677098 0.000671897 0.000620848 0.000677098 0.000627886 0.000620848 0.000570013 0.000671897 0.000620848 0.000614015 0.000560614 0.000620848 0.000570013 0.000560614 0.000508051 0.000627886 0.000579264 0.000570013 0.000520048 0.000579264 0.000531921 0.000520048 0.000471436 0.000570013 0.000520048 0.000508051 0.000456703 0.000520048 0.000471436 0.000456703 0.000406853 0.000614015 0.000560614 0.000554236 0.000498421 0.000560614 0.000508051 0.000498421 0.00044411 0.000554236 0.000498421 0.000494523 0.000436329 0.000498421 0.00044411 0.000436329 0.000380325 0.000508051 0.000456703 0.00044411 0.000391424 0.000456703 0.000406853 0.000391424 0.000340465 0.00044411 0.000391424 0.000380325 0.000326406 0.000391424 0.000340465 0.000326406 0.000274519 0.000531921 0.000486335 0.000471436 0.000424493 0.000486335 0.000442796 0.000424493 0.000379368 0.000471436 0.000424493 0.000406853 0.000358671 0.000424493 0.000379368 0.000358671 0.000312198 0.000442796 0.000401391 0.000379368 0.000336027 0.000401391 0.000361983 0.000336027 0.000294233 0.000379368 0.000336027 0.000312198 0.000267332 0.000336027 0.000294233 0.000267332 0.000223821 0.000406853 0.000358671 0.000340465 0.000291277 0.000358671 0.000312198 0.000291277 0.000243826 0.000340465 0.000291277 0.000274519 0.000224609 0.000291277 0.000243826 0.000224609 0.000176583 0.000312198 0.000267332 0.000243826 0.00019798 0.000267332 0.000223821 0.00019798 0.000153512 0.000243826 0.00019798 0.000176583 0.000130299 0.00019798 0.000153512 0.000130299 8.55719e-05 0.000538528 0.000509567 0.000515159 0.000486608 0.000509567 0.000485983 0.000486608 0.000463015 0.000515159 0.000486608 0.000476029 0.000445301 0.000486608 0.000463015 0.000445301 0.000418054 0.000485983 0.000468809 0.000463015 0.000444895 0.000468809 0.000459498 0.000444895 0.000432611 0.000463015 0.000444895 0.000418054 0.000393831 0.000444895 0.000432611 0.000393831 0.000371247 0.000476029 0.000445301 0.000423791 0.000389558 0.000445301 0.000418054 0.000389558 0.000357223 0.000423791 0.000389558 0.000361983 0.000324158 0.000389558 0.000357223 0.000324158 0.000287159 0.000418054 0.000393831 0.000357223 0.000325668 0.000393831 0.000371247 0.000325668 0.00029303 0.000357223 0.000325668 0.000287159 0.000249816 0.000325668 0.00029303 0.000249816 0.000210697 0.000361983 0.000324158 0.000294233 0.000253528 0.000324158 0.000287159 0.000253528 0.000213221 0.000294233 0.000253528 0.000223821 0.000181265 0.000253528 0.000213221 0.000181265 0.000139166 0.000287159 0.000249816 0.000213221 0.000172478 0.000249816 0.000210697 0.000172478 0.000130491 0.000213221 0.000172478 0.000139166 9.70343e-05 0.000172478 0.000130491 9.70343e-05 5.46035e-05 0.000223821 0.000181265 0.000153512 0.000110128 0.000181265 0.000139166 0.000110128 6.75212e-05 0.000153512 0.000110128 8.55719e-05 4.21998e-05 0.000110128 6.75212e-05 4.21998e-05 2.38521e-08 0.000139166 9.70343e-05 6.75212e-05 2.54844e-05 9.70343e-05 5.46035e-05 2.54844e-05 -1.59176e-05 6.75212e-05 2.54844e-05 2.38521e-08 -4.09855e-05 2.54844e-05 -1.59176e-05 -4.09855e-05 -8.06132e-05 0.000210697 0.000168413 0.000130491 8.69244e-05 0.000168413 0.000122618 8.69244e-05 4.27495e-05 0.000130491 8.69244e-05 5.46035e-05 1.21812e-05 8.69244e-05 4.27495e-05 1.21812e-05 -2.89423e-05 0.000122618 7.63179e-05 4.27495e-05 1.05852e-06 7.63179e-05 3.71235e-05 1.05852e-06 -3.28015e-05 4.27495e-05 1.05852e-06 -2.89423e-05 -6.62088e-05 1.05852e-06 -3.28015e-05 -6.62088e-05 -9.61921e-05 5.46035e-05 1.21812e-05 -1.59176e-05 -5.61369e-05 1.21812e-05 -2.89423e-05 -5.61369e-05 -9.39516e-05 -1.59176e-05 -5.61369e-05 -8.06132e-05 -0.000118283 -5.61369e-05 -9.39516e-05 -0.000118283 -0.000152989 -2.89423e-05 -6.62088e-05 -9.39516e-05 -0.000127455 -6.62088e-05 -9.61921e-05 -0.000127455 -0.000154377 -9.39516e-05 -0.000127455 -0.000152989 -0.000183354 -0.000127455 -0.000154377 -0.000183354 -0.000207874 0.000494523 0.000436329 0.000436797 0.000376345 0.000436329 0.000380325 0.000376345 0.000318757 0.000436797 0.000376345 0.000382859 0.00032034 0.000376345 0.000318757 0.00032034 0.000261322 0.000380325 0.000326406 0.000318757 0.000263745 0.000326406 0.000274519 0.000263745 0.00021113 0.000318757 0.000263745 0.000261322 0.000205374 0.000263745 0.00021113 0.000205374 0.000152218 0.000382859 0.00032034 0.000334341 0.00027 0.00032034 0.000261322 0.00027 0.000209736 0.000334341 0.00027 0.000292662 0.000226784 0.00027 0.000209736 0.000226784 0.000165479 0.000261322 0.000205374 0.000209736 0.000153013 0.000205374 0.000152218 0.000153013 9.94759e-05 0.000209736 0.000153013 0.000165479 0.000108137 0.000153013 9.94759e-05 0.000108137 5.43459e-05 0.000274519 0.000224609 0.00021113 0.000160773 0.000224609 0.000176583 0.000160773 0.000112538 0.00021113 0.000160773 0.000152218 0.000101648 0.000160773 0.000112538 0.000101648 5.34905e-05 0.000176583 0.000130299 0.000112538 6.62771e-05 0.000130299 8.55719e-05 6.62771e-05 2.18345e-05 0.000112538 6.62771e-05 5.34905e-05 7.5857e-06 6.62771e-05 2.18345e-05 7.5857e-06 -3.62067e-05 0.000152218 0.000101648 9.94759e-05 4.88655e-05 0.000101648 5.34905e-05 4.88655e-05 9.73061e-07 9.94759e-05 4.88655e-05 5.43459e-05 3.80291e-06 4.88655e-05 9.73061e-07 3.80291e-06 -4.37316e-05 5.34905e-05 7.5857e-06 9.73061e-07 -4.43768e-05 7.5857e-06 -3.62067e-05 -4.43768e-05 -8.73271e-05 9.73061e-07 -4.43768e-05 -4.37316e-05 -8.84537e-05 -4.43768e-05 -8.73271e-05 -8.84537e-05 -0.00013052 0.000292662 0.000226784 0.000259003 0.000191904 0.000226784 0.000165479 0.000191904 0.000129779 0.000259003 0.000191904 0.000234294 0.000166309 0.000191904 0.000129779 0.000166309 0.000103592 0.000165479 0.000108137 0.000129779 7.19655e-05 0.000108137 5.43459e-05 7.19655e-05 1.80135e-05 0.000129779 7.19655e-05 0.000103592 4.54485e-05 7.19655e-05 1.80135e-05 4.54485e-05 -8.59814e-06 0.000234294 0.000166309 0.000219201 0.00015068 0.000166309 0.000103592 0.00015068 8.76055e-05 0.000219201 0.00015068 0.000214125 0.000145425 0.00015068 8.76055e-05 0.000145425 8.22309e-05 0.000103592 4.54485e-05 8.76055e-05 2.92663e-05 4.54485e-05 -8.59814e-06 2.92663e-05 -2.48291e-05 8.76055e-05 2.92663e-05 8.22309e-05 2.38269e-05 2.92663e-05 -2.48291e-05 2.38269e-05 -3.02834e-05 5.43459e-05 3.80291e-06 1.80135e-05 -3.24132e-05 3.80291e-06 -4.37316e-05 -3.24132e-05 -7.95812e-05 1.80135e-05 -3.24132e-05 -8.59814e-06 -5.89074e-05 -3.24132e-05 -7.95812e-05 -5.89074e-05 -0.000105767 -4.37316e-05 -8.84537e-05 -7.95812e-05 -0.000123708 -8.84537e-05 -0.00013052 -0.000123708 -0.000164971 -7.95812e-05 -0.000123708 -0.000105767 -0.000149413 -0.000123708 -0.000164971 -0.000149413 -0.00019004 -8.59814e-06 -5.89074e-05 -2.48291e-05 -7.50542e-05 -5.89074e-05 -0.000105767 -7.50542e-05 -0.00012171 -2.48291e-05 -7.50542e-05 -3.02834e-05 -8.04782e-05 -7.50542e-05 -0.00012171 -8.04782e-05 -0.000127063 -0.000105767 -0.000149413 -0.00012171 -0.000165046 -0.000149413 -0.00019004 -0.000165046 -0.000205267 -0.00012171 -0.000165046 -0.000127063 -0.000170291 -0.000165046 -0.000205267 -0.000170291 -0.000210374 8.55719e-05 4.21998e-05 2.18345e-05 -2.09253e-05 4.21998e-05 2.38521e-08 -2.09253e-05 -6.20736e-05 2.18345e-05 -2.09253e-05 -3.62067e-05 -7.79906e-05 -2.09253e-05 -6.20736e-05 -7.79906e-05 -0.000117801 2.38521e-08 -4.09855e-05 -6.20736e-05 -0.000101556 -4.09855e-05 -8.06132e-05 -0.000101556 -0.000139121 -6.20736e-05 -0.000101556 -0.000117801 -0.000155564 -0.000101556 -0.000139121 -0.000155564 -0.000191059 -3.62067e-05 -7.79906e-05 -8.73271e-05 -0.000127977 -7.79906e-05 -0.000117801 -0.000127977 -0.000166361 -8.73271e-05 -0.000127977 -0.00013052 -0.000170043 -0.000127977 -0.000166361 -0.000170043 -0.000207078 -0.000117801 -0.000155564 -0.000166361 -0.000202426 -0.000155564 -0.000191059 -0.000202426 -0.000236009 -0.000166361 -0.000202426 -0.000207078 -0.000241608 -0.000202426 -0.000236009 -0.000241608 -0.000273539 -8.06132e-05 -0.000118283 -0.000139121 -0.000174267 -0.000118283 -0.000152989 -0.000174267 -0.000206223 -0.000139121 -0.000174267 -0.000191059 -0.000223893 -0.000174267 -0.000206223 -0.000223893 -0.000253508 -0.000152989 -0.000183354 -0.000206223 -0.000234023 -0.000183354 -0.000207874 -0.000234023 -0.000256666 -0.000206223 -0.000234023 -0.000253508 -0.000279244 -0.000234023 -0.000256666 -0.000279244 -0.000300447 -0.000191059 -0.000223893 -0.000236009 -0.000266832 -0.000223893 -0.000253508 -0.000266832 -0.000294516 -0.000236009 -0.000266832 -0.000273539 -0.000302697 -0.000266832 -0.000294516 -0.000302697 -0.000328842 -0.000253508 -0.000279244 -0.000294516 -0.000318626 -0.000279244 -0.000300447 -0.000318626 -0.000338749 -0.000294516 -0.000318626 -0.000328842 -0.000351705 -0.000318626 -0.000338749 -0.000351705 -0.00037104 -0.00013052 -0.000170043 -0.000164971 -0.0002035 -0.000170043 -0.000207078 -0.0002035 -0.000239379 -0.000164971 -0.0002035 -0.00019004 -0.000227799 -0.0002035 -0.000239379 -0.000227799 -0.000262801 -0.000207078 -0.000241608 -0.000239379 -0.000272636 -0.000241608 -0.000273539 -0.000272636 -0.000303236 -0.000239379 -0.000272636 -0.000262801 -0.000295109 -0.000272636 -0.000303236 -0.000295109 -0.000324737 -0.00019004 -0.000227799 -0.000205267 -0.000242542 -0.000227799 -0.000262801 -0.000242542 -0.000276998 -0.000205267 -0.000242542 -0.000210374 -0.000247484 -0.000242542 -0.000276998 -0.000247484 -0.000281754 -0.000262801 -0.000295109 -0.000276998 -0.000308721 -0.000295109 -0.000324737 -0.000308721 -0.000337758 -0.000276998 -0.000308721 -0.000281754 -0.00031328 -0.000308721 -0.000337758 -0.00031328 -0.000342119 -0.000273539 -0.000302697 -0.000303236 -0.000331091 -0.000302697 -0.000328842 -0.000331091 -0.000356066 -0.000303236 -0.000331091 -0.000324737 -0.000351658 -0.000331091 -0.000356066 -0.000351658 -0.000375814 -0.000328842 -0.000351705 -0.000356066 -0.000378012 -0.000351705 -0.00037104 -0.000378012 -0.000396796 -0.000356066 -0.000378012 -0.000375814 -0.000397133 -0.000378012 -0.000396796 -0.000397133 -0.000415556 -0.000324737 -0.000351658 -0.000337758 -0.000364119 -0.000351658 -0.000375814 -0.000364119 -0.000387789 -0.000337758 -0.000364119 -0.000342119 -0.000368293 -0.000364119 -0.000387789 -0.000368293 -0.000391802 -0.000375814 -0.000397133 -0.000387789 -0.000408742 -0.000397133 -0.000415556 -0.000408742 -0.000426962 -0.000387789 -0.000408742 -0.000391802 -0.000412635 -0.000408742 -0.000426962 -0.000412635 -0.000430789 0.000595021 0.0005515 0.000369652 0.000380566 0.0005515 0.000513459 0.000380566 0.000380986 0.000369652 0.000380566 0.00020652 0.000232171 0.000380566 0.000380986 0.000232171 0.000252491 0.000211836 0.000190864 0.00011597 9.32382e-05 0.000190864 0.00020652 9.32382e-05 9.66823e-05 0.00011597 9.32382e-05 3.71235e-05 1.4899e-05 9.32382e-05 9.66823e-05 1.4899e-05 1.19504e-05 0.00020652 0.000232171 9.66823e-05 0.000116271 0.000232171 0.000252491 0.000116271 0.000140168 9.66823e-05 0.000116271 1.19504e-05 2.42911e-05 0.000116271 0.000140168 2.42911e-05 4.48516e-05 0.000513459 0.000483282 0.000380986 0.000377839 0.000483282 0.000460826 0.000377839 0.000374583 0.000380986 0.000377839 0.000252491 0.000267337 0.000377839 0.000374583 0.000267337 0.000278749 0.000460826 0.00044562 0.000374583 0.000372892 0.00044562 0.000437043 0.000372892 0.000373428 0.000374583 0.000372892 0.000278749 0.000288349 0.000372892 0.000373428 0.000288349 0.000297146 0.000252491 0.000267337 0.000140168 0.000162659 0.000267337 0.000278749 0.000162659 0.00018236 0.000140168 0.000162659 4.48516e-05 6.79618e-05 0.000162659 0.00018236 6.79618e-05 9.04717e-05 0.000278749 0.000288349 0.00018236 0.000199426 0.000288349 0.000297146 0.000199426 0.000214318 0.00018236 0.000199426 9.04717e-05 0.000111099 0.000199426 0.000214318 0.000111099 0.000129471 3.71235e-05 1.4899e-05 -3.28015e-05 -5.37773e-05 1.4899e-05 1.19504e-05 -5.37773e-05 -5.98246e-05 -3.28015e-05 -5.37773e-05 -9.61921e-05 -0.000115785 -5.37773e-05 -5.98246e-05 -0.000115785 -0.000123678 1.19504e-05 2.42911e-05 -5.98246e-05 -5.29429e-05 2.42911e-05 4.48516e-05 -5.29429e-05 -3.71432e-05 -5.98246e-05 -5.29429e-05 -0.000123678 -0.000120758 -5.29429e-05 -3.71432e-05 -0.000120758 -0.000109466 -9.61921e-05 -0.000115785 -0.000154377 -0.000172783 -0.000115785 -0.000123678 -0.000172783 -0.000181787 -0.000154377 -0.000172783 -0.000207874 -0.000225308 -0.000172783 -0.000181787 -0.000225308 -0.000235081 -0.000123678 -0.000120758 -0.000181787 -0.000181852 -0.000120758 -0.000109466 -0.000181852 -0.000174486 -0.000181787 -0.000181852 -0.000235081 -0.00023747 -0.000181852 -0.000174486 -0.00023747 -0.000233471 4.48516e-05 6.79618e-05 -3.71432e-05 -1.67305e-05 6.79618e-05 9.04717e-05 -1.67305e-05 5.02358e-06 -3.71432e-05 -1.67305e-05 -0.000109466 -9.28645e-05 -1.67305e-05 5.02358e-06 -9.28645e-05 -7.3739e-05 9.04717e-05 0.000111099 5.02358e-06 2.6144e-05 0.000111099 0.000129471 2.6144e-05 4.56062e-05 5.02358e-06 2.6144e-05 -7.3739e-05 -5.41501e-05 2.6144e-05 4.56062e-05 -5.41501e-05 -3.5434e-05 -0.000109466 -9.28645e-05 -0.000174486 -0.00016185 -9.28645e-05 -7.3739e-05 -0.00016185 -0.00014615 -0.000174486 -0.00016185 -0.000233471 -0.000224588 -0.00016185 -0.00014615 -0.000224588 -0.00021252 -7.3739e-05 -5.41501e-05 -0.00014615 -0.000129245 -5.41501e-05 -3.5434e-05 -0.000129245 -0.000112507 -0.00014615 -0.000129245 -0.00021252 -0.000198835 -0.000129245 -0.000112507 -0.000198835 -0.00018478 0.000437043 0.000434293 0.000373428 0.000376263 0.000434293 0.000436348 0.000376263 0.000381092 0.000373428 0.000376263 0.000297146 0.000305645 0.000376263 0.000381092 0.000305645 0.000314005 0.000436348 0.000441997 0.000381092 0.000387361 0.000441997 0.0004499 0.000387361 0.000394339 0.000381092 0.000387361 0.000314005 0.000322143 0.000387361 0.000394339 0.000322143 0.000329802 0.000297146 0.000305645 0.000214318 0.000227442 0.000305645 0.000314005 0.000227442 0.000239076 0.000214318 0.000227442 0.000129471 0.000145586 0.000227442 0.000239076 0.000145586 0.000159584 0.000314005 0.000322143 0.000239076 0.000249367 0.000322143 0.000329802 0.000249367 0.000258344 0.000239076 0.000249367 0.000159584 0.000171636 0.000249367 0.000258344 0.000171636 0.000181876 0.0004499 0.00045862 0.000394339 0.000401179 0.00045862 0.000466629 0.000401179 0.000406975 0.000394339 0.000401179 0.000329802 0.000336605 0.000401179 0.000406975 0.000336605 0.000342074 0.000466629 0.000472316 0.000406975 0.000410802 0.000472316 0.000474323 0.000410802 0.000411802 0.000406975 0.000410802 0.000342074 0.000345615 0.000410802 0.000411802 0.000345615 0.00034623 0.000329802 0.000336605 0.000258344 0.000265914 0.000336605 0.000342074 0.000265914 0.000271849 0.000258344 0.000265914 0.000181876 0.000190349 0.000265914 0.000271849 0.000190349 0.00019695 0.000342074 0.000345615 0.000271849 0.000275682 0.000345615 0.00034623 0.000275682 0.000276495 0.000271849 0.000275682 0.00019695 0.000201333 0.000275682 0.000276495 0.000201333 0.000202769 0.000129471 0.000145586 4.56062e-05 6.29748e-05 0.000145586 0.000159584 6.29748e-05 7.81516e-05 4.56062e-05 6.29748e-05 -3.5434e-05 -1.83233e-05 6.29748e-05 7.81516e-05 -1.83233e-05 -3.13438e-06 0.000159584 0.000171636 7.81516e-05 9.12074e-05 0.000171636 0.000181876 9.12074e-05 0.000102265 7.81516e-05 9.12074e-05 -3.13438e-06 1.00688e-05 9.12074e-05 0.000102265 1.00688e-05 2.13448e-05 -3.5434e-05 -1.83233e-05 -0.000112507 -9.67909e-05 -1.83233e-05 -3.13438e-06 -9.67909e-05 -8.25584e-05 -0.000112507 -9.67909e-05 -0.00018478 -0.000171206 -9.67909e-05 -8.25584e-05 -0.000171206 -0.000158626 -3.13438e-06 1.00688e-05 -8.25584e-05 -6.99853e-05 1.00688e-05 2.13448e-05 -6.99853e-05 -5.90785e-05 -8.25584e-05 -6.99853e-05 -0.000158626 -0.000147286 -6.99853e-05 -5.90785e-05 -0.000147286 -0.000137232 0.000181876 0.000190349 0.000102265 0.000111408 0.000190349 0.00019695 0.000111408 0.000118605 0.000102265 0.000111408 2.13448e-05 3.07732e-05 0.000111408 0.000118605 3.07732e-05 3.8375e-05 0.00019695 0.000201333 0.000118605 0.000123631 0.000201333 0.000202769 0.000123631 0.000126008 0.000118605 0.000123631 3.8375e-05 4.40543e-05 0.000123631 0.000126008 4.40543e-05 4.75875e-05 2.13448e-05 3.07732e-05 -5.90785e-05 -4.97707e-05 3.07732e-05 3.8375e-05 -4.97707e-05 -4.19894e-05 -5.90785e-05 -4.97707e-05 -0.000137232 -0.000128395 -4.97707e-05 -4.19894e-05 -0.000128395 -0.000120644 3.8375e-05 4.40543e-05 -4.19894e-05 -3.56953e-05 4.40543e-05 4.75875e-05 -3.56953e-05 -3.08729e-05 -4.19894e-05 -3.56953e-05 -0.000120644 -0.000113796 -3.56953e-05 -3.08729e-05 -0.000113796 -0.000107626 -0.000207874 -0.000225308 -0.000256666 -0.000273361 -0.000225308 -0.000235081 -0.000273361 -0.000283747 -0.000256666 -0.000273361 -0.000300447 -0.00031662 -0.000273361 -0.000283747 -0.00031662 -0.000327556 -0.000235081 -0.00023747 -0.000283747 -0.000288024 -0.00023747 -0.000233471 -0.000288024 -0.00028691 -0.000283747 -0.000288024 -0.000327556 -0.000333424 -0.000288024 -0.00028691 -0.000333424 -0.000334759 -0.000300447 -0.00031662 -0.000338749 -0.000354586 -0.00031662 -0.000327556 -0.000354586 -0.000366039 -0.000338749 -0.000354586 -0.00037104 -0.000386685 -0.000354586 -0.000366039 -0.000386685 -0.000398614 -0.000327556 -0.000333424 -0.000366039 -0.000373262 -0.000333424 -0.000334759 -0.000373262 -0.000376656 -0.000366039 -0.000373262 -0.000398614 -0.000406972 -0.000373262 -0.000376656 -0.000406972 -0.000412075 -0.000233471 -0.000224588 -0.00028691 -0.000281437 -0.000224588 -0.00021252 -0.000281437 -0.000272895 -0.00028691 -0.000281437 -0.000334759 -0.000332306 -0.000281437 -0.000272895 -0.000332306 -0.000327016 -0.00021252 -0.000198835 -0.000272895 -0.000262558 -0.000198835 -0.00018478 -0.000262558 -0.000251486 -0.000272895 -0.000262558 -0.000327016 -0.000319895 -0.000262558 -0.000251486 -0.000319895 -0.000311817 -0.000334759 -0.000332306 -0.000376656 -0.000376802 -0.000332306 -0.000327016 -0.000376802 -0.000374386 -0.000376656 -0.000376802 -0.000412075 -0.000414358 -0.000376802 -0.000374386 -0.000414358 -0.000414369 -0.000327016 -0.000319895 -0.000374386 -0.000370187 -0.000319895 -0.000311817 -0.000370187 -0.000364905 -0.000374386 -0.000370187 -0.000414369 -0.00041269 -0.000370187 -0.000364905 -0.00041269 -0.000409863 -0.00037104 -0.000386685 -0.000396796 -0.000412347 -0.000386685 -0.000398614 -0.000412347 -0.000424686 -0.000396796 -0.000412347 -0.000415556 -0.000431069 -0.000412347 -0.000424686 -0.000431069 -0.000443727 -0.000398614 -0.000406972 -0.000424686 -0.000433955 -0.000406972 -0.000412075 -0.000433955 -0.000440406 -0.000424686 -0.000433955 -0.000443727 -0.000453662 -0.000433955 -0.000440406 -0.000453662 -0.000461091 -0.0004