# vtk DataFile Version 3.0
#This file was generated by the deal.II library on 2022/11/17 at 1:05:12
ASCII
DATASET UNSTRUCTURED_GRID

POINTS 10240 double
0.4375 0.75 0
0.46875 0.75 0
0.4375 0.78125 0
0.46875 0.78125 0
0.46875 0.75 0
0.5 0.75 0
0.46875 0.78125 0
0.5 0.78125 0
0.4375 0.78125 0
0.46875 0.78125 0
0.4375 0.8125 0
0.46875 0.8125 0
0.46875 0.78125 0
0.5 0.78125 0
0.46875 0.8125 0
0.5 0.8125 0
0.4375 0.8125 0
0.46875 0.8125 0
0.4375 0.84375 0
0.46875 0.84375 0
0.46875 0.8125 0
0.5 0.8125 0
0.46875 0.84375 0
0.5 0.84375 0
0.4375 0.84375 0
0.46875 0.84375 0
0.4375 0.875 0
0.46875 0.875 0
0.46875 0.84375 0
0.5 0.84375 0
0.46875 0.875 0
0.5 0.875 0
0.375 0.875 0
0.40625 0.875 0
0.375 0.90625 0
0.40625 0.90625 0
0.40625 0.875 0
0.4375 0.875 0
0.40625 0.90625 0
0.4375 0.90625 0
0.375 0.90625 0
0.40625 0.90625 0
0.375 0.9375 0
0.40625 0.9375 0
0.40625 0.90625 0
0.4375 0.90625 0
0.40625 0.9375 0
0.4375 0.9375 0
0.4375 0.875 0
0.46875 0.875 0
0.4375 0.90625 0
0.46875 0.90625 0
0.46875 0.875 0
0.5 0.875 0
0.46875 0.90625 0
0.5 0.90625 0
0.4375 0.90625 0
0.46875 0.90625 0
0.4375 0.9375 0
0.46875 0.9375 0
0.46875 0.90625 0
0.5 0.90625 0
0.46875 0.9375 0
0.5 0.9375 0
0.625 0.5 0
0.65625 0.5 0
0.625 0.53125 0
0.65625 0.53125 0
0.65625 0.5 0
0.6875 0.5 0
0.65625 0.53125 0
0.6875 0.53125 0
0.625 0.53125 0
0.65625 0.53125 0
0.625 0.5625 0
0.65625 0.5625 0
0.65625 0.53125 0
0.6875 0.53125 0
0.65625 0.5625 0
0.6875 0.5625 0
0.6875 0.5 0
0.71875 0.5 0
0.6875 0.53125 0
0.71875 0.53125 0
0.71875 0.5 0
0.75 0.5 0
0.71875 0.53125 0
0.75 0.53125 0
0.6875 0.53125 0
0.71875 0.53125 0
0.6875 0.5625 0
0.71875 0.5625 0
0.71875 0.53125 0
0.75 0.53125 0
0.71875 0.5625 0
0.75 0.5625 0
0.625 0.5625 0
0.65625 0.5625 0
0.625 0.59375 0
0.65625 0.59375 0
0.65625 0.5625 0
0.6875 0.5625 0
0.65625 0.59375 0
0.6875 0.59375 0
0.625 0.59375 0
0.65625 0.59375 0
0.625 0.625 0
0.65625 0.625 0
0.65625 0.59375 0
0.6875 0.59375 0
0.65625 0.625 0
0.6875 0.625 0
0.6875 0.5625 0
0.71875 0.5625 0
0.6875 0.59375 0
0.71875 0.59375 0
0.71875 0.5625 0
0.75 0.5625 0
0.71875 0.59375 0
0.75 0.59375 0
0.6875 0.59375 0
0.71875 0.59375 0
0.6875 0.625 0
0.71875 0.625 0
0.71875 0.59375 0
0.75 0.59375 0
0.71875 0.625 0
0.75 0.625 0
0.5625 0.625 0
0.59375 0.625 0
0.5625 0.65625 0
0.59375 0.65625 0
0.59375 0.625 0
0.625 0.625 0
0.59375 0.65625 0
0.625 0.65625 0
0.5625 0.65625 0
0.59375 0.65625 0
0.5625 0.6875 0
0.59375 0.6875 0
0.59375 0.65625 0
0.625 0.65625 0
0.59375 0.6875 0
0.625 0.6875 0
0.5 0.6875 0
0.53125 0.6875 0
0.5 0.71875 0
0.53125 0.71875 0
0.53125 0.6875 0
0.5625 0.6875 0
0.53125 0.71875 0
0.5625 0.71875 0
0.5 0.71875 0
0.53125 0.71875 0
0.5 0.75 0
0.53125 0.75 0
0.53125 0.71875 0
0.5625 0.71875 0
0.53125 0.75 0
0.5625 0.75 0
0.5625 0.6875 0
0.59375 0.6875 0
0.5625 0.71875 0
0.59375 0.71875 0
0.59375 0.6875 0
0.625 0.6875 0
0.59375 0.71875 0
0.625 0.71875 0
0.5625 0.71875 0
0.59375 0.71875 0
0.5625 0.75 0
0.59375 0.75 0
0.59375 0.71875 0
0.625 0.71875 0
0.59375 0.75 0
0.625 0.75 0
0.625 0.625 0
0.65625 0.625 0
0.625 0.65625 0
0.65625 0.65625 0
0.65625 0.625 0
0.6875 0.625 0
0.65625 0.65625 0
0.6875 0.65625 0
0.625 0.65625 0
0.65625 0.65625 0
0.625 0.6875 0
0.65625 0.6875 0
0.65625 0.65625 0
0.6875 0.65625 0
0.65625 0.6875 0
0.6875 0.6875 0
0.6875 0.625 0
0.71875 0.625 0
0.6875 0.65625 0
0.71875 0.65625 0
0.71875 0.625 0
0.75 0.625 0
0.71875 0.65625 0
0.75 0.65625 0
0.6875 0.65625 0
0.71875 0.65625 0
0.6875 0.6875 0
0.71875 0.6875 0
0.71875 0.65625 0
0.75 0.65625 0
0.71875 0.6875 0
0.75 0.6875 0
0.625 0.6875 0
0.65625 0.6875 0
0.625 0.71875 0
0.65625 0.71875 0
0.65625 0.6875 0
0.6875 0.6875 0
0.65625 0.71875 0
0.6875 0.71875 0
0.625 0.71875 0
0.65625 0.71875 0
0.625 0.75 0
0.65625 0.75 0
0.65625 0.71875 0
0.6875 0.71875 0
0.65625 0.75 0
0.6875 0.75 0
0.6875 0.6875 0
0.71875 0.6875 0
0.6875 0.71875 0
0.71875 0.71875 0
0.71875 0.6875 0
0.75 0.6875 0
0.71875 0.71875 0
0.75 0.71875 0
0.6875 0.71875 0
0.71875 0.71875 0
0.6875 0.75 0
0.71875 0.75 0
0.71875 0.71875 0
0.75 0.71875 0
0.71875 0.75 0
0.75 0.75 0
0.75 0.5 0
0.78125 0.5 0
0.75 0.53125 0
0.78125 0.53125 0
0.78125 0.5 0
0.8125 0.5 0
0.78125 0.53125 0
0.8125 0.53125 0
0.75 0.53125 0
0.78125 0.53125 0
0.75 0.5625 0
0.78125 0.5625 0
0.78125 0.53125 0
0.8125 0.53125 0
0.78125 0.5625 0
0.8125 0.5625 0
0.8125 0.5 0
0.84375 0.5 0
0.8125 0.53125 0
0.84375 0.53125 0
0.84375 0.5 0
0.875 0.5 0
0.84375 0.53125 0
0.875 0.53125 0
0.8125 0.53125 0
0.84375 0.53125 0
0.8125 0.5625 0
0.84375 0.5625 0
0.84375 0.53125 0
0.875 0.53125 0
0.84375 0.5625 0
0.875 0.5625 0
0.75 0.5625 0
0.78125 0.5625 0
0.75 0.59375 0
0.78125 0.59375 0
0.78125 0.5625 0
0.8125 0.5625 0
0.78125 0.59375 0
0.8125 0.59375 0
0.75 0.59375 0
0.78125 0.59375 0
0.75 0.625 0
0.78125 0.625 0
0.78125 0.59375 0
0.8125 0.59375 0
0.78125 0.625 0
0.8125 0.625 0
0.8125 0.5625 0
0.84375 0.5625 0
0.8125 0.59375 0
0.84375 0.59375 0
0.84375 0.5625 0
0.875 0.5625 0
0.84375 0.59375 0
0.875 0.59375 0
0.8125 0.59375 0
0.84375 0.59375 0
0.8125 0.625 0
0.84375 0.625 0
0.84375 0.59375 0
0.875 0.59375 0
0.84375 0.625 0
0.875 0.625 0
0.875 0.5 0
0.90625 0.5 0
0.875 0.53125 0
0.90625 0.53125 0
0.90625 0.5 0
0.9375 0.5 0
0.90625 0.53125 0
0.9375 0.53125 0
0.875 0.53125 0
0.90625 0.53125 0
0.875 0.5625 0
0.90625 0.5625 0
0.90625 0.53125 0
0.9375 0.53125 0
0.90625 0.5625 0
0.9375 0.5625 0
0.9375 0.5 0
0.96875 0.5 0
0.9375 0.53125 0
0.96875 0.53125 0
0.96875 0.5 0
1 0.5 0
0.96875 0.53125 0
1 0.53125 0
0.9375 0.53125 0
0.96875 0.53125 0
0.9375 0.5625 0
0.96875 0.5625 0
0.96875 0.53125 0
1 0.53125 0
0.96875 0.5625 0
1 0.5625 0
0.875 0.5625 0
0.90625 0.5625 0
0.875 0.59375 0
0.90625 0.59375 0
0.90625 0.5625 0
0.9375 0.5625 0
0.90625 0.59375 0
0.9375 0.59375 0
0.875 0.59375 0
0.90625 0.59375 0
0.875 0.625 0
0.90625 0.625 0
0.90625 0.59375 0
0.9375 0.59375 0
0.90625 0.625 0
0.9375 0.625 0
0.9375 0.5625 0
0.96875 0.5625 0
0.9375 0.59375 0
0.96875 0.59375 0
0.96875 0.5625 0
1 0.5625 0
0.96875 0.59375 0
1 0.59375 0
0.9375 0.59375 0
0.96875 0.59375 0
0.9375 0.625 0
0.96875 0.625 0
0.96875 0.59375 0
1 0.59375 0
0.96875 0.625 0
1 0.625 0
0.75 0.625 0
0.78125 0.625 0
0.75 0.65625 0
0.78125 0.65625 0
0.78125 0.625 0
0.8125 0.625 0
0.78125 0.65625 0
0.8125 0.65625 0
0.75 0.65625 0
0.78125 0.65625 0
0.75 0.6875 0
0.78125 0.6875 0
0.78125 0.65625 0
0.8125 0.65625 0
0.78125 0.6875 0
0.8125 0.6875 0
0.8125 0.625 0
0.84375 0.625 0
0.8125 0.65625 0
0.84375 0.65625 0
0.84375 0.625 0
0.875 0.625 0
0.84375 0.65625 0
0.875 0.65625 0
0.8125 0.65625 0
0.84375 0.65625 0
0.8125 0.6875 0
0.84375 0.6875 0
0.84375 0.65625 0
0.875 0.65625 0
0.84375 0.6875 0
0.875 0.6875 0
0.75 0.6875 0
0.78125 0.6875 0
0.75 0.71875 0
0.78125 0.71875 0
0.78125 0.6875 0
0.8125 0.6875 0
0.78125 0.71875 0
0.8125 0.71875 0
0.75 0.71875 0
0.78125 0.71875 0
0.75 0.75 0
0.78125 0.75 0
0.78125 0.71875 0
0.8125 0.71875 0
0.78125 0.75 0
0.8125 0.75 0
0.8125 0.6875 0
0.84375 0.6875 0
0.8125 0.71875 0
0.84375 0.71875 0
0.84375 0.6875 0
0.875 0.6875 0
0.84375 0.71875 0
0.875 0.71875 0
0.8125 0.71875 0
0.84375 0.71875 0
0.8125 0.75 0
0.84375 0.75 0
0.84375 0.71875 0
0.875 0.71875 0
0.84375 0.75 0
0.875 0.75 0
0.875 0.625 0
0.90625 0.625 0
0.875 0.65625 0
0.90625 0.65625 0
0.90625 0.625 0
0.9375 0.625 0
0.90625 0.65625 0
0.9375 0.65625 0
0.875 0.65625 0
0.90625 0.65625 0
0.875 0.6875 0
0.90625 0.6875 0
0.90625 0.65625 0
0.9375 0.65625 0
0.90625 0.6875 0
0.9375 0.6875 0
0.9375 0.625 0
0.96875 0.625 0
0.9375 0.65625 0
0.96875 0.65625 0
0.96875 0.625 0
1 0.625 0
0.96875 0.65625 0
1 0.65625 0
0.9375 0.65625 0
0.96875 0.65625 0
0.9375 0.6875 0
0.96875 0.6875 0
0.96875 0.65625 0
1 0.65625 0
0.96875 0.6875 0
1 0.6875 0
0.875 0.6875 0
0.90625 0.6875 0
0.875 0.71875 0
0.90625 0.71875 0
0.90625 0.6875 0
0.9375 0.6875 0
0.90625 0.71875 0
0.9375 0.71875 0
0.875 0.71875 0
0.90625 0.71875 0
0.875 0.75 0
0.90625 0.75 0
0.90625 0.71875 0
0.9375 0.71875 0
0.90625 0.75 0
0.9375 0.75 0
0.9375 0.6875 0
0.96875 0.6875 0
0.9375 0.71875 0
0.96875 0.71875 0
0.96875 0.6875 0
1 0.6875 0
0.96875 0.71875 0
1 0.71875 0
0.9375 0.71875 0
0.96875 0.71875 0
0.9375 0.75 0
0.96875 0.75 0
0.96875 0.71875 0
1 0.71875 0
0.96875 0.75 0
1 0.75 0
0.5 0.75 0
0.53125 0.75 0
0.5 0.78125 0
0.53125 0.78125 0
0.53125 0.75 0
0.5625 0.75 0
0.53125 0.78125 0
0.5625 0.78125 0
0.5 0.78125 0
0.53125 0.78125 0
0.5 0.8125 0
0.53125 0.8125 0
0.53125 0.78125 0
0.5625 0.78125 0
0.53125 0.8125 0
0.5625 0.8125 0
0.5625 0.75 0
0.59375 0.75 0
0.5625 0.78125 0
0.59375 0.78125 0
0.59375 0.75 0
0.625 0.75 0
0.59375 0.78125 0
0.625 0.78125 0
0.5625 0.78125 0
0.59375 0.78125 0
0.5625 0.8125 0
0.59375 0.8125 0
0.59375 0.78125 0
0.625 0.78125 0
0.59375 0.8125 0
0.625 0.8125 0
0.5 0.8125 0
0.53125 0.8125 0
0.5 0.84375 0
0.53125 0.84375 0
0.53125 0.8125 0
0.5625 0.8125 0
0.53125 0.84375 0
0.5625 0.84375 0
0.5 0.84375 0
0.53125 0.84375 0
0.5 0.875 0
0.53125 0.875 0
0.53125 0.84375 0
0.5625 0.84375 0
0.53125 0.875 0
0.5625 0.875 0
0.5625 0.8125 0
0.59375 0.8125 0
0.5625 0.84375 0
0.59375 0.84375 0
0.59375 0.8125 0
0.625 0.8125 0
0.59375 0.84375 0
0.625 0.84375 0
0.5625 0.84375 0
0.59375 0.84375 0
0.5625 0.875 0
0.59375 0.875 0
0.59375 0.84375 0
0.625 0.84375 0
0.59375 0.875 0
0.625 0.875 0
0.625 0.75 0
0.65625 0.75 0
0.625 0.78125 0
0.65625 0.78125 0
0.65625 0.75 0
0.6875 0.75 0
0.65625 0.78125 0
0.6875 0.78125 0
0.625 0.78125 0
0.65625 0.78125 0
0.625 0.8125 0
0.65625 0.8125 0
0.65625 0.78125 0
0.6875 0.78125 0
0.65625 0.8125 0
0.6875 0.8125 0
0.6875 0.75 0
0.71875 0.75 0
0.6875 0.78125 0
0.71875 0.78125 0
0.71875 0.75 0
0.75 0.75 0
0.71875 0.78125 0
0.75 0.78125 0
0.6875 0.78125 0
0.71875 0.78125 0
0.6875 0.8125 0
0.71875 0.8125 0
0.71875 0.78125 0
0.75 0.78125 0
0.71875 0.8125 0
0.75 0.8125 0
0.625 0.8125 0
0.65625 0.8125 0
0.625 0.84375 0
0.65625 0.84375 0
0.65625 0.8125 0
0.6875 0.8125 0
0.65625 0.84375 0
0.6875 0.84375 0
0.625 0.84375 0
0.65625 0.84375 0
0.625 0.875 0
0.65625 0.875 0
0.65625 0.84375 0
0.6875 0.84375 0
0.65625 0.875 0
0.6875 0.875 0
0.6875 0.8125 0
0.71875 0.8125 0
0.6875 0.84375 0
[...]
POINT_DATA 10240
SCALARS x_dis double 1
LOOKUP_TABLE default
-0.000170194 -0.000146144 -0.000285698 -0.000254872 -0.000146144 -0.000123808 -0.000254872 -0.00022494 -0.000285698 -0.000254872 -0.00038848 -0.000352204 -0.000254872 -0.00022494 -0.000352204 -0.000316165 -0.00038848 -0.000352204 -0.000477243 -0.00043678 -0.000352204 -0.000316165 -0.00043678 -0.000395828 -0.000477243 -0.00043678 -0.000551086 -0.000507575 -0.00043678 -0.000395828 -0.000507575 -0.000462813 -0.000627856 -0.000591658 -0.000688634 -0.000651825 -0.000591658 -0.000551086 -0.000651825 -0.000609642 -0.000688634 -0.000651825 -0.000732143 -0.000695487 -0.000651825 -0.000609642 -0.000695487 -0.000652585 -0.000551086 -0.000507575 -0.000609642 -0.000563983 -0.000507575 -0.000462813 -0.000563983 -0.000516449 -0.000609642 -0.000563983 -0.000652585 -0.000605566 -0.000563983 -0.000516449 -0.000605566 -0.000556229 0.000524565 0.00046901 0.000473399 0.000434874 0.00046901 0.000426855 0.000434874 0.000402549 0.000473399 0.000434874 0.000402863 0.000381672 0.000434874 0.000402549 0.000381672 0.000361167 0.000426855 0.000394255 0.000402549 0.000376404 0.000394255 0.000369265 0.000376404 0.00035588 0.000402549 0.000376404 0.000361167 0.000343451 0.000376404 0.00035588 0.000343451 0.000329162 0.000402863 0.000381672 0.000332097 0.000320206 0.000381672 0.000361167 0.000320206 0.000309282 0.000332097 0.000320206 0.000260596 0.00025499 0.000320206 0.000309282 0.00025499 0.000251302 0.000361167 0.000343451 0.000309282 0.000299747 0.000343451 0.000329162 0.000299747 0.000292188 0.000309282 0.000299747 0.000251302 0.000248893 0.000299747 0.000292188 0.000248893 0.000247775 0.000284159 0.000269335 0.000194794 0.000188682 0.000269335 0.000260596 0.000188682 0.000186291 0.000194794 0.000188682 0.000101851 0.000104773 0.000188682 0.000186291 0.000104773 0.000109875 9.81485e-05 9.99957e-05 -1.53825e-05 -3.37517e-06 9.99957e-05 0.000101851 -3.37517e-06 8.11832e-06 -1.53825e-05 -3.37517e-06 -0.000123808 -0.00010294 -3.37517e-06 8.11832e-06 -0.00010294 -8.28468e-05 0.000101851 0.000104773 8.11832e-06 1.99632e-05 0.000104773 0.000109875 1.99632e-05 3.26776e-05 8.11832e-06 1.99632e-05 -8.28468e-05 -6.30386e-05 1.99632e-05 3.26776e-05 -6.30386e-05 -4.31459e-05 0.000260596 0.00025499 0.000186291 0.00018699 0.00025499 0.000251302 0.00018699 0.000189594 0.000186291 0.00018699 0.000109875 0.000117018 0.00018699 0.000189594 0.000117018 0.000125666 0.000251302 0.000248893 0.000189594 0.000193445 0.000248893 0.000247775 0.000193445 0.00019825 0.000189594 0.000193445 0.000125666 0.000135283 0.000193445 0.00019825 0.000135283 0.00014553 0.000109875 0.000117018 3.26776e-05 4.64192e-05 0.000117018 0.000125666 4.64192e-05 6.098e-05 3.26776e-05 4.64192e-05 -4.31459e-05 -2.30428e-05 4.64192e-05 6.098e-05 -2.30428e-05 -2.80975e-06 0.000125666 0.000135283 6.098e-05 7.60429e-05 0.000135283 0.00014553 7.60429e-05 9.13191e-05 6.098e-05 7.60429e-05 -2.80975e-06 1.73612e-05 7.60429e-05 9.13191e-05 1.73612e-05 3.7253e-05 0.000369265 0.000350648 0.00035588 0.000340353 0.000350648 0.00033749 0.000340353 0.000329201 0.00035588 0.000340353 0.000329162 0.000318342 0.000340353 0.000329201 0.000318342 0.00031076 0.00033749 0.000329 0.000329201 0.000321789 0.000329 0.000324363 0.000321789 0.000317451 0.000329201 0.000321789 0.00031076 0.000306036 0.000321789 0.000317451 0.000306036 0.000303712 0.000329162 0.000318342 0.000292188 0.000286861 0.000318342 0.00031076 0.000286861 0.000283762 0.000292188 0.000286861 0.000247775 0.000248068 0.000286861 0.000283762 0.000248068 0.000249793 0.00031076 0.000306036 0.000283762 0.000282712 0.000306036 0.000303712 0.000282712 0.000283416 0.000283762 0.000282712 0.000249793 0.000252855 0.000282712 0.000283416 0.000252855 0.000257055 0.000324363 0.000322638 0.000317451 0.000315471 0.000322638 0.000322706 0.000315471 0.00031509 0.000317451 0.000315471 0.000303712 0.000303271 0.000315471 0.00031509 0.000303271 0.000304147 0.000322706 0.000323359 0.00031509 0.00031553 0.000323359 0.000323735 0.00031553 0.000315982 0.00031509 0.00031553 0.000304147 0.000305659 0.00031553 0.000315982 0.000305659 0.000306835 0.000303712 0.000303271 0.000283416 0.000285498 0.000303271 0.000304147 0.000285498 0.000288484 0.000283416 0.000285498 0.000257055 0.000262098 0.000285498 0.000288484 0.000262098 0.000267572 0.000304147 0.000305659 0.000288484 0.000291714 0.000305659 0.000306835 0.000291714 0.000294118 0.000288484 0.000291714 0.000267572 0.000272849 0.000291714 0.000294118 0.000272849 0.000276926 0.000247775 0.000248068 0.00019825 0.000203925 0.000248068 0.000249793 0.000203925 0.00021042 0.00019825 0.000203925 0.00014553 0.000156211 0.000203925 0.00021042 0.000156211 0.000167198 0.000249793 0.000252855 0.00021042 0.000217638 0.000252855 0.000257055 0.000217638 0.000225421 0.00021042 0.000217638 0.000167198 0.000178373 0.000217638 0.000225421 0.000178373 0.000189593 0.00014553 0.000156211 9.13191e-05 0.000106586 0.000156211 0.000167198 0.000106586 0.000121683 9.13191e-05 0.000106586 3.7253e-05 5.6663e-05 0.000106586 0.000121683 5.6663e-05 7.54381e-05 0.000167198 0.000178373 0.000121683 0.000136482 0.000178373 0.000189593 0.000136482 0.000150864 0.000121683 0.000136482 7.54381e-05 9.34691e-05 0.000136482 0.000150864 9.34691e-05 0.000110674 0.000257055 0.000262098 0.000225421 0.000233528 0.000262098 0.000267572 0.000233528 0.000241602 0.000225421 0.000233528 0.000189593 0.000200663 0.000233528 0.000241602 0.000200663 0.000211305 0.000267572 0.000272849 0.000241602 0.000249105 0.000272849 0.000276926 0.000249105 0.000255208 0.000241602 0.000249105 0.000211305 0.000221114 0.000249105 0.000255208 0.000221114 0.000229499 0.000189593 0.000200663 0.000150864 0.000164688 0.000200663 0.000211305 0.000164688 0.000177779 0.000150864 0.000164688 0.000110674 0.000126987 0.000164688 0.000177779 0.000126987 0.000142352 0.000211305 0.000221114 0.000177779 0.000189896 0.000221114 0.000229499 0.000189896 0.000200716 0.000177779 0.000189896 0.000142352 0.000156714 0.000189896 0.000200716 0.000156714 0.000170019 -0.000123808 -0.00010294 -0.00022494 -0.000196231 -0.00010294 -8.28468e-05 -0.000196231 -0.000168616 -0.00022494 -0.000196231 -0.000316165 -0.000280985 -0.000196231 -0.000168616 -0.000280985 -0.000246919 -8.28468e-05 -6.30386e-05 -0.000168616 -0.000141736 -6.30386e-05 -4.31459e-05 -0.000141736 -0.000115354 -0.000168616 -0.000141736 -0.000246919 -0.000213922 -0.000141736 -0.000115354 -0.000213922 -0.00018185 -0.000316165 -0.000280985 -0.000395828 -0.00035535 -0.000280985 -0.000246919 -0.00035535 -0.000315922 -0.000395828 -0.00035535 -0.000462813 -0.000418102 -0.00035535 -0.000315922 -0.000418102 -0.00037437 -0.000246919 -0.000213922 -0.000315922 -0.000277774 -0.000213922 -0.00018185 -0.000277774 -0.00024089 -0.000315922 -0.000277774 -0.00037437 -0.000332099 -0.000277774 -0.00024089 -0.000332099 -0.00029128 -4.31459e-05 -2.30428e-05 -0.000115354 -8.93907e-05 -2.30428e-05 -2.80975e-06 -8.93907e-05 -6.39204e-05 -0.000115354 -8.93907e-05 -0.00018185 -0.000150702 -8.93907e-05 -6.39204e-05 -0.000150702 -0.00012059 -2.80975e-06 1.73612e-05 -6.39204e-05 -3.90852e-05 1.73612e-05 3.7253e-05 -3.90852e-05 -1.5051e-05 -6.39204e-05 -3.90852e-05 -0.00012059 -9.16632e-05 -3.90852e-05 -1.5051e-05 -9.16632e-05 -6.40315e-05 -0.00018185 -0.000150702 -0.00024089 -0.000205305 -0.000150702 -0.00012059 -0.000205305 -0.000171258 -0.00024089 -0.000205305 -0.00029128 -0.00025201 -0.000205305 -0.000171258 -0.00025201 -0.000214647 -0.00012059 -9.16632e-05 -0.000171258 -0.000138898 -9.16632e-05 -6.40315e-05 -0.000138898 -0.000108274 -0.000171258 -0.000138898 -0.000214647 -0.000179621 -0.000138898 -0.000108274 -0.000179621 -0.000146535 -0.000462813 -0.000418102 -0.000516449 -0.000468538 -0.000418102 -0.00037437 -0.000468538 -0.000421494 -0.000516449 -0.000468538 -0.000556229 -0.000506093 -0.000468538 -0.000421494 -0.000506093 -0.000456502 -0.00037437 -0.000332099 -0.000421494 -0.000376196 -0.000332099 -0.00029128 -0.000376196 -0.000332647 -0.000421494 -0.000376196 -0.000456502 -0.000408688 -0.000376196 -0.000332647 -0.000408688 -0.000364063 -0.00029128 -0.00025201 -0.000332647 -0.000289969 -0.00025201 -0.000214647 -0.000289969 -0.000250024 -0.000332647 -0.000289969 -0.000364063 -0.000320048 -0.000289969 -0.000250024 -0.000320048 -0.000276221 -0.000214647 -0.000179621 -0.000250024 -0.000212794 -0.000179621 -0.000146535 -0.000212794 -0.000177889 -0.000250024 -0.000212794 -0.000276221 -0.000239078 -0.000212794 -0.000177889 -0.000239078 -0.000199951 -0.000276221 -0.000239078 -0.00029689 -0.00024882 -0.000239078 -0.000199951 -0.00024882 -0.000210766 -0.00029689 -0.00024882 -0.000272186 -0.000243359 -0.00024882 -0.000210766 -0.000243359 -0.000213047 3.7253e-05 5.6663e-05 -1.5051e-05 8.02482e-06 5.6663e-05 7.54381e-05 8.02482e-06 3.00232e-05 -1.5051e-05 8.02482e-06 -6.40315e-05 -3.77977e-05 8.02482e-06 3.00232e-05 -3.77977e-05 -1.30341e-05 7.54381e-05 9.34691e-05 3.00232e-05 5.08711e-05 9.34691e-05 0.000110674 5.08711e-05 7.0539e-05 3.00232e-05 5.08711e-05 -1.30341e-05 1.02176e-05 5.08711e-05 7.0539e-05 1.02176e-05 3.1987e-05 -6.40315e-05 -3.77977e-05 -0.000108274 -7.93742e-05 -3.77977e-05 -1.30341e-05 -7.93742e-05 -5.22812e-05 -0.000108274 -7.93742e-05 -0.000146535 -0.000115417 -7.93742e-05 -5.22812e-05 -0.000115417 -8.63373e-05 -1.30341e-05 1.02176e-05 -5.22812e-05 -2.70146e-05 1.02176e-05 3.1987e-05 -2.70146e-05 -3.50129e-06 -5.22812e-05 -2.70146e-05 -8.63373e-05 -5.9448e-05 -2.70146e-05 -3.50129e-06 -5.9448e-05 -3.45517e-05 0.000110674 0.000126987 7.0539e-05 8.90487e-05 0.000126987 0.000142352 8.90487e-05 0.000106476 7.0539e-05 8.90487e-05 3.1987e-05 5.23894e-05 8.90487e-05 0.000106476 5.23894e-05 7.16397e-05 0.000142352 0.000156714 0.000106476 0.000122957 0.000156714 0.000170019 0.000122957 0.0001387 0.000106476 0.000122957 7.16397e-05 9.00608e-05 0.000122957 0.0001387 9.00608e-05 0.000108106 3.1987e-05 5.23894e-05 -3.50129e-06 1.84834e-05 5.23894e-05 7.16397e-05 1.84834e-05 3.92942e-05 -3.50129e-06 1.84834e-05 -3.45517e-05 -1.13022e-05 1.84834e-05 3.92942e-05 -1.13022e-05 1.07884e-05 7.16397e-05 9.00608e-05 3.92942e-05 5.94298e-05 9.00608e-05 0.000108106 5.94298e-05 7.95635e-05 3.92942e-05 5.94298e-05 1.07884e-05 3.23728e-05 5.94298e-05 7.95635e-05 3.23728e-05 5.43101e-05 -0.000146535 -0.000115417 -0.000177889 -0.000144519 -0.000115417 -8.63373e-05 -0.000144519 -0.000113923 -0.000177889 -0.000144519 -0.000199951 -0.000165315 -0.000144519 -0.000113923 -0.000165315 -0.000133978 -8.63373e-05 -5.9448e-05 -0.000113923 -8.58582e-05 -5.9448e-05 -3.45517e-05 -8.58582e-05 -5.99604e-05 -0.000113923 -8.58582e-05 -0.000133978 -0.000105274 -8.58582e-05 -5.99604e-05 -0.000105274 -7.87626e-05 -0.000199951 -0.000165315 -0.000210766 -0.000177131 -0.000165315 -0.000133978 -0.000177131 -0.000145946 -0.000210766 -0.000177131 -0.000213047 -0.000180733 -0.000177131 -0.000145946 -0.000180733 -0.000149882 -0.000133978 -0.000105274 -0.000145946 -0.000117082 -0.000105274 -7.87626e-05 -0.000117082 -9.02886e-05 -0.000145946 -0.000117082 -0.000149882 -0.000121033 -0.000117082 -9.02886e-05 -0.000121033 -9.41685e-05 -3.45517e-05 -1.13022e-05 -5.99604e-05 -3.57699e-05 -1.13022e-05 1.07884e-05 -3.57699e-05 -1.26934e-05 -5.99604e-05 -3.57699e-05 -7.87626e-05 -5.3948e-05 -3.57699e-05 -1.26934e-05 -5.3948e-05 -3.01822e-05 1.07884e-05 3.23728e-05 -1.26934e-05 1.00425e-05 3.23728e-05 5.43101e-05 1.00425e-05 3.34424e-05 -1.26934e-05 1.00425e-05 -3.01822e-05 -6.61348e-06 1.00425e-05 3.34424e-05 -6.61348e-06 1.78631e-05 -7.87626e-05 -5.3948e-05 -9.02886e-05 -6.51331e-05 -5.3948e-05 -3.01822e-05 -6.51331e-05 -4.09644e-05 -9.02886e-05 -6.51331e-05 -9.41685e-05 -6.89073e-05 -6.51331e-05 -4.09644e-05 -6.89073e-05 -4.46066e-05 -3.01822e-05 -6.61348e-06 -4.09644e-05 -1.68935e-05 -6.61348e-06 1.78631e-05 -1.68935e-05 8.24133e-06 -4.09644e-05 -1.68935e-05 -4.46066e-05 -2.03681e-05 -1.68935e-05 8.24133e-06 -2.03681e-05 4.98786e-06 -0.000633186 -0.000633619 -0.000626415 -0.0006267 -0.000633619 -0.000629618 -0.0006267 -0.000622619 -0.000626415 -0.0006267 -0.000606061 -0.00060592 -0.0006267 -0.000622619 -0.00060592 -0.00060163 -0.000629618 -0.000622635 -0.000622619 -0.000615624 -0.000622635 -0.000613862 -0.000615624 -0.00060689 -0.000622619 -0.000615624 -0.00060163 -0.000594627 -0.000615624 -0.00060689 -0.000594627 -0.00058606 -0.000606061 -0.00060592 -0.000572011 -0.000571226 -0.00060592 -0.00060163 -0.000571226 -0.000566692 -0.000572011 -0.000571226 -0.000524073 -0.000522582 -0.000571226 -0.000566692 -0.000522582 -0.000517877 -0.00060163 -0.000594627 -0.000566692 -0.000559776 -0.000594627 -0.00058606 -0.000559776 -0.000551646 -0.000566692 -0.000559776 -0.000517877 -0.000511309 -0.000559776 -0.000551646 -0.000511309 -0.000503961 -0.000524073 -0.000522582 -0.000462058 -0.000459948 -0.000522582 -0.000517877 -0.000459948 -0.000455363 -0.000462058 -0.000459948 -0.000385566 -0.000383374 -0.000459948 -0.000455363 -0.000383374 -0.000379653 -0.000517877 -0.000511309 -0.000455363 -0.000449588 -0.000511309 -0.000503961 -0.000449588 -0.000443539 -0.000455363 -0.000449588 -0.000379653 -0.000375276 -0.000449588 -0.000443539 -0.000375276 -0.000371189 -0.000379653 -0.000375276 -0.000291323 -0.000289245 -0.000375276 -0.000371189 -0.000289245 -0.000288073 -0.000291323 -0.000289245 -0.000191428 -0.000192916 -0.000289245 -0.000288073 -0.000192916 -0.000195841 -0.000191428 -0.000192916 -8.17067e-05 -8.8341e-05 -0.000192916 -0.000195841 -8.8341e-05 -9.65664e-05 -8.17067e-05 -8.8341e-05 3.55763e-05 2.2189e-05 -8.8341e-05 -9.65664e-05 2.2189e-05 7.08179e-06 -0.000613862 -0.000604241 -0.00060689 -0.000597367 -0.000604241 -0.000594558 -0.000597367 -0.000587856 -0.00060689 -0.000597367 -0.00058606 -0.000576914 -0.000597367 -0.000587856 -0.000576914 -0.000567897 -0.000594558 -0.000585434 -0.000587856 -0.000578919 -0.000585434 -0.000577223 -0.000578919 -0.000570888 -0.000587856 -0.000578919 -0.000567897 -0.000559505 -0.000578919 -0.000570888 -0.000559505 -0.000552005 -0.00058606 -0.000576914 -0.000551646 -0.000543185 -0.000576914 -0.000567897 -0.000543185 -0.00053502 -0.000551646 -0.000543185 -0.000503961 -0.00049661 -0.000543185 -0.00053502 -0.00049661 -0.000489753 -0.000567897 -0.000559505 -0.00053502 -0.000527553 -0.000559505 -0.000552005 -0.000527553 -0.000520959 -0.00053502 -0.000527553 -0.000489753 -0.000483663 -0.000527553 -0.000520959 -0.000483663 -0.000478402 -0.000577223 -0.000570082 -0.000570888 -0.000563906 -0.000570082 -0.000564027 -0.000563906 -0.000557986 -0.000570888 -0.000563906 -0.000552005 -0.000545509 -0.000563906 -0.000557986 -0.000545509 -0.000540001 -0.000564027 -0.00055892 -0.000557986 -0.000552986 -0.00055892 -0.000554496 -0.000552986 -0.000548641 -0.000557986 -0.000552986 -0.000540001 -0.00053533 -0.000552986 -0.000548641 -0.00053533 -0.000531234 -0.000552005 -0.000545509 -0.000520959 -0.000515295 -0.000545509 -0.000540001 -0.000515295 -0.0005105 -0.000520959 -0.000515295 -0.000478402 -0.000473955 -0.000515295 -0.0005105 -0.000473955 -0.000470207 -0.000540001 -0.00053533 -0.0005105 -0.000506406 -0.00053533 -0.000531234 -0.000506406 -0.000502749 -0.0005105 -0.000506406 -0.000470207 -0.000466964 -0.000506406 -0.000502749 -0.000466964 -0.000463965 -0.000503961 -0.00049661 -0.000443539 -0.000437853 -0.00049661 -0.000489753 -0.000437853 -0.000432872 -0.000443539 -0.000437853 -0.000371189 -0.000367875 -0.000437853 -0.000432872 -0.000367875 -0.00036545 -0.000489753 -0.000483663 -0.000432872 -0.00042869 -0.000483663 -0.000478402 -0.00042869 -0.000425256 -0.000432872 -0.00042869 -0.00036545 -0.000363791 -0.00042869 -0.000425256 -0.000363791 -0.000362731 -0.000371189 -0.000367875 -0.000288073 -0.000288017 -0.000367875 -0.00036545 -0.000288017 -0.000288906 -0.000288073 -0.000288017 -0.000195841 -0.000200012 -0.000288017 -0.000288906 -0.000200012 -0.000205069 -0.00036545 -0.000363791 -0.000288906 -0.000290456 -0.000363791 -0.000362731 -0.000290456 -0.000292344 -0.000288906 -0.000290456 -0.000205069 -0.00021053 -0.000290456 -0.000292344 -0.00021053 -0.000215919 -0.000478402 -0.000473955 -0.000425256 -0.000422459 -0.000473955 -0.000470207 -0.000422459 -0.000420125 -0.000425256 -0.000422459 -0.000362731 -0.000362052 -0.000422459 -0.000420125 -0.000362052 -0.000361521 -0.000470207 -0.000466964 -0.000420125 -0.000418036 -0.000466964 -0.000463965 -0.000418036 -0.00041594 -0.000420125 -0.000418036 -0.000361521 -0.000360909 -0.000418036 -0.00041594 -0.000360909 -0.00035998 -0.000362731 -0.000362052 -0.000292344 -0.000294254 -0.000362052 -0.000361521 -0.000294254 -0.000295916 -0.000292344 -0.000294254 -0.000215919 -0.000220858 -0.000294254 -0.000295916 -0.000220858 -0.00022506 -0.000361521 -0.000360909 -0.000295916 -0.000297099 -0.000360909 -0.00035998 -0.000297099 -0.000297602 -0.000295916 -0.000297099 -0.00022506 -0.000228324 -0.000297099 -0.000297602 -0.000228324 -0.0002305 -0.000554496 -0.000550373 -0.000548641 -0.000544574 -0.000550373 -0.000546071 -0.000544574 -0.000540312 -0.000548641 -0.000544574 -0.000531234 -0.000527346 -0.000544574 -0.000540312 -0.000527346 -0.000523209 -0.000546071 -0.000541014 -0.000540312 -0.000535286 -0.000541014 -0.000534528 -0.000535286 -0.000528832 -0.000540312 -0.000535286 -0.000523209 -0.00051828 -0.000535286 -0.000528832 -0.00051828 -0.000511927 -0.000531234 -0.000527346 -0.000502749 -0.000499181 -0.000527346 -0.000523209 -0.000499181 -0.000495275 -0.000502749 -0.000499181 -0.000463965 -0.000460886 -0.000499181 -0.000495275 -0.000460886 -0.000457339 -0.000523209 -0.00051828 -0.000495275 -0.000490526 -0.00051828 -0.000511927 -0.000490526 -0.000484355 -0.000495275 -0.000490526 -0.000457339 -0.000452875 -0.000490526 -0.000484355 -0.000452875 -0.000446984 -0.000534528 -0.000525837 -0.000528832 -0.000520188 -0.000525837 -0.000514047 -0.000520188 -0.000508477 -0.000528832 -0.000520188 -0.000511927 -0.000503427 -0.000520188 -0.000508477 -0.000503427 -0.00049195 -0.000514047 -0.00049812 -0.000508477 -0.000492679 -0.00049812 -0.000476833 -0.000492679 -0.0004716 -0.000508477 -0.000492679 -0.00049195 -0.000476539 -0.000492679 -0.0004716 -0.000476539 -0.000456075 -0.000511927 -0.000503427 -0.000484355 -0.0004761 -0.000503427 -0.00049195 -0.0004761 -0.000465014 -0.000484355 -0.0004761 -0.000446984 -0.000439089 -0.0004761 -0.000465014 -0.000439089 -0.000428548 -0.00049195 -0.000476539 -0.000465014 -0.000450237 -0.000476539 -0.000456075 -0.000450237 -0.00043077 -0.000465014 -0.000450237 -0.000428548 -0.000414632 -0.000450237 -0.00043077 -0.000414632 -0.000396506 -0.000463965 -0.000460886 -0.00041594 -0.000413544 -0.000460886 -0.000457339 -0.000413544 -0.000410513 -0.00041594 -0.000413544 -0.00035998 -0.000358484 -0.000413544 -0.000410513 -0.000358484 -0.000356148 -0.000457339 -0.000452875 -0.000410513 -0.000406465 -0.000452875 -0.000446984 -0.000406465 -0.000400972 -0.000410513 -0.000406465 -0.000356148 -0.000352669 -0.000406465 -0.000400972 -0.000352669 -0.000347713 -0.00035998 -0.000358484 -0.000297602 -0.00029723 -0.000358484 -0.000356148 -0.00029723 -0.000295783 -0.000297602 -0.00029723 -0.0002305 -0.000231465 -0.00029723 -0.000295783 -0.000231465 -0.0002311 -0.000356148 -0.000352669 -0.000295783 -0.000293044 -0.000352669 -0.000347713 -0.000293044 -0.000288776 -0.000295783 -0.000293044 -0.0002311 -0.000229273 -0.000293044 -0.000288776 -0.000229273 -0.000225847 -0.000446984 -0.000439089 -0.000400972 -0.000393562 -0.000439089 -0.000428548 -0.000393562 -0.000383717 -0.000400972 -0.000393562 -0.000347713 -0.000340921 -0.000393562 -0.000383717 -0.000340921 -0.000331915 -0.000428548 -0.000414632 -0.000383717 -0.000370866 -0.000414632 -0.000396506 -0.000370866 -0.00035437 -0.000383717 -0.000370866 -0.000331915 -0.000320301 -0.000370866 -0.00035437 -0.000320301 -0.000305663 -0.000347713 -0.000340921 -0.000288776 -0.00028274 -0.000340921 -0.000331915 -0.00028274 -0.000274702 -0.000288776 -0.00028274 -0.000225847 -0.000220698 -0.00028274 -0.000274702 -0.000220698 -0.000213738 -0.000331915 -0.000320301 -0.000274702 -0.000264458 -0.000320301 -0.000305663 -0.000264458 -0.000251831 -0.000274702 -