# vtk DataFile Version 3.0
#This file was generated by the deal.II library on 2022/11/17 at 1:25:12
ASCII
DATASET UNSTRUCTURED_GRID

POINTS 10288 double
0.4375 0.75 0
0.46875 0.75 0
0.4375 0.78125 0
0.46875 0.78125 0
0.46875 0.75 0
0.5 0.75 0
0.46875 0.78125 0
0.5 0.78125 0
0.4375 0.78125 0
0.46875 0.78125 0
0.4375 0.8125 0
0.46875 0.8125 0
0.46875 0.78125 0
0.5 0.78125 0
0.46875 0.8125 0
0.5 0.8125 0
0.4375 0.8125 0
0.46875 0.8125 0
0.4375 0.84375 0
0.46875 0.84375 0
0.46875 0.8125 0
0.5 0.8125 0
0.46875 0.84375 0
0.5 0.84375 0
0.4375 0.84375 0
0.46875 0.84375 0
0.4375 0.875 0
0.46875 0.875 0
0.46875 0.84375 0
0.5 0.84375 0
0.46875 0.875 0
0.5 0.875 0
0.375 0.875 0
0.40625 0.875 0
0.375 0.90625 0
0.40625 0.90625 0
0.40625 0.875 0
0.4375 0.875 0
0.40625 0.90625 0
0.4375 0.90625 0
0.375 0.90625 0
0.40625 0.90625 0
0.375 0.9375 0
0.40625 0.9375 0
0.40625 0.90625 0
0.4375 0.90625 0
0.40625 0.9375 0
0.4375 0.9375 0
0.4375 0.875 0
0.46875 0.875 0
0.4375 0.90625 0
0.46875 0.90625 0
0.46875 0.875 0
0.5 0.875 0
0.46875 0.90625 0
0.5 0.90625 0
0.4375 0.90625 0
0.46875 0.90625 0
0.4375 0.9375 0
0.46875 0.9375 0
0.46875 0.90625 0
0.5 0.90625 0
0.46875 0.9375 0
0.5 0.9375 0
0.625 0.5 0
0.65625 0.5 0
0.625 0.53125 0
0.65625 0.53125 0
0.65625 0.5 0
0.6875 0.5 0
0.65625 0.53125 0
0.6875 0.53125 0
0.625 0.53125 0
0.65625 0.53125 0
0.625 0.5625 0
0.65625 0.5625 0
0.65625 0.53125 0
0.6875 0.53125 0
0.65625 0.5625 0
0.6875 0.5625 0
0.6875 0.5 0
0.71875 0.5 0
0.6875 0.53125 0
0.71875 0.53125 0
0.71875 0.5 0
0.75 0.5 0
0.71875 0.53125 0
0.75 0.53125 0
0.6875 0.53125 0
0.71875 0.53125 0
0.6875 0.5625 0
0.71875 0.5625 0
0.71875 0.53125 0
0.75 0.53125 0
0.71875 0.5625 0
0.75 0.5625 0
0.625 0.5625 0
0.65625 0.5625 0
0.625 0.59375 0
0.65625 0.59375 0
0.65625 0.5625 0
0.6875 0.5625 0
0.65625 0.59375 0
0.6875 0.59375 0
0.625 0.59375 0
0.65625 0.59375 0
0.625 0.625 0
0.65625 0.625 0
0.65625 0.59375 0
0.6875 0.59375 0
0.65625 0.625 0
0.6875 0.625 0
0.6875 0.5625 0
0.71875 0.5625 0
0.6875 0.59375 0
0.71875 0.59375 0
0.71875 0.5625 0
0.75 0.5625 0
0.71875 0.59375 0
0.75 0.59375 0
0.6875 0.59375 0
0.71875 0.59375 0
0.6875 0.625 0
0.71875 0.625 0
0.71875 0.59375 0
0.75 0.59375 0
0.71875 0.625 0
0.75 0.625 0
0.5625 0.625 0
0.59375 0.625 0
0.5625 0.65625 0
0.59375 0.65625 0
0.59375 0.625 0
0.625 0.625 0
0.59375 0.65625 0
0.625 0.65625 0
0.5625 0.65625 0
0.59375 0.65625 0
0.5625 0.6875 0
0.59375 0.6875 0
0.59375 0.65625 0
0.625 0.65625 0
0.59375 0.6875 0
0.625 0.6875 0
0.5 0.6875 0
0.53125 0.6875 0
0.5 0.71875 0
0.53125 0.71875 0
0.53125 0.6875 0
0.5625 0.6875 0
0.53125 0.71875 0
0.5625 0.71875 0
0.5 0.71875 0
0.53125 0.71875 0
0.5 0.75 0
0.53125 0.75 0
0.53125 0.71875 0
0.5625 0.71875 0
0.53125 0.75 0
0.5625 0.75 0
0.5625 0.6875 0
0.59375 0.6875 0
0.5625 0.71875 0
0.59375 0.71875 0
0.59375 0.6875 0
0.625 0.6875 0
0.59375 0.71875 0
0.625 0.71875 0
0.5625 0.71875 0
0.59375 0.71875 0
0.5625 0.75 0
0.59375 0.75 0
0.59375 0.71875 0
0.625 0.71875 0
0.59375 0.75 0
0.625 0.75 0
0.625 0.625 0
0.65625 0.625 0
0.625 0.65625 0
0.65625 0.65625 0
0.65625 0.625 0
0.6875 0.625 0
0.65625 0.65625 0
0.6875 0.65625 0
0.625 0.65625 0
0.65625 0.65625 0
0.625 0.6875 0
0.65625 0.6875 0
0.65625 0.65625 0
0.6875 0.65625 0
0.65625 0.6875 0
0.6875 0.6875 0
0.6875 0.625 0
0.71875 0.625 0
0.6875 0.65625 0
0.71875 0.65625 0
0.71875 0.625 0
0.75 0.625 0
0.71875 0.65625 0
0.75 0.65625 0
0.6875 0.65625 0
0.71875 0.65625 0
0.6875 0.6875 0
0.71875 0.6875 0
0.71875 0.65625 0
0.75 0.65625 0
0.71875 0.6875 0
0.75 0.6875 0
0.625 0.6875 0
0.65625 0.6875 0
0.625 0.71875 0
0.65625 0.71875 0
0.65625 0.6875 0
0.6875 0.6875 0
0.65625 0.71875 0
0.6875 0.71875 0
0.625 0.71875 0
0.65625 0.71875 0
0.625 0.75 0
0.65625 0.75 0
0.65625 0.71875 0
0.6875 0.71875 0
0.65625 0.75 0
0.6875 0.75 0
0.6875 0.6875 0
0.71875 0.6875 0
0.6875 0.71875 0
0.71875 0.71875 0
0.71875 0.6875 0
0.75 0.6875 0
0.71875 0.71875 0
0.75 0.71875 0
0.6875 0.71875 0
0.71875 0.71875 0
0.6875 0.75 0
0.71875 0.75 0
0.71875 0.71875 0
0.75 0.71875 0
0.71875 0.75 0
0.75 0.75 0
0.75 0.5 0
0.78125 0.5 0
0.75 0.53125 0
0.78125 0.53125 0
0.78125 0.5 0
0.8125 0.5 0
0.78125 0.53125 0
0.8125 0.53125 0
0.75 0.53125 0
0.78125 0.53125 0
0.75 0.5625 0
0.78125 0.5625 0
0.78125 0.53125 0
0.8125 0.53125 0
0.78125 0.5625 0
0.8125 0.5625 0
0.8125 0.5 0
0.84375 0.5 0
0.8125 0.53125 0
0.84375 0.53125 0
0.84375 0.5 0
0.875 0.5 0
0.84375 0.53125 0
0.875 0.53125 0
0.8125 0.53125 0
0.84375 0.53125 0
0.8125 0.5625 0
0.84375 0.5625 0
0.84375 0.53125 0
0.875 0.53125 0
0.84375 0.5625 0
0.875 0.5625 0
0.75 0.5625 0
0.78125 0.5625 0
0.75 0.59375 0
0.78125 0.59375 0
0.78125 0.5625 0
0.8125 0.5625 0
0.78125 0.59375 0
0.8125 0.59375 0
0.75 0.59375 0
0.78125 0.59375 0
0.75 0.625 0
0.78125 0.625 0
0.78125 0.59375 0
0.8125 0.59375 0
0.78125 0.625 0
0.8125 0.625 0
0.8125 0.5625 0
0.84375 0.5625 0
0.8125 0.59375 0
0.84375 0.59375 0
0.84375 0.5625 0
0.875 0.5625 0
0.84375 0.59375 0
0.875 0.59375 0
0.8125 0.59375 0
0.84375 0.59375 0
0.8125 0.625 0
0.84375 0.625 0
0.84375 0.59375 0
0.875 0.59375 0
0.84375 0.625 0
0.875 0.625 0
0.875 0.5 0
0.90625 0.5 0
0.875 0.53125 0
0.90625 0.53125 0
0.90625 0.5 0
0.9375 0.5 0
0.90625 0.53125 0
0.9375 0.53125 0
0.875 0.53125 0
0.90625 0.53125 0
0.875 0.5625 0
0.90625 0.5625 0
0.90625 0.53125 0
0.9375 0.53125 0
0.90625 0.5625 0
0.9375 0.5625 0
0.9375 0.5 0
0.96875 0.5 0
0.9375 0.53125 0
0.96875 0.53125 0
0.96875 0.5 0
1 0.5 0
0.96875 0.53125 0
1 0.53125 0
0.9375 0.53125 0
0.96875 0.53125 0
0.9375 0.5625 0
0.96875 0.5625 0
0.96875 0.53125 0
1 0.53125 0
0.96875 0.5625 0
1 0.5625 0
0.875 0.5625 0
0.90625 0.5625 0
0.875 0.59375 0
0.90625 0.59375 0
0.90625 0.5625 0
0.9375 0.5625 0
0.90625 0.59375 0
0.9375 0.59375 0
0.875 0.59375 0
0.90625 0.59375 0
0.875 0.625 0
0.90625 0.625 0
0.90625 0.59375 0
0.9375 0.59375 0
0.90625 0.625 0
0.9375 0.625 0
0.9375 0.5625 0
0.96875 0.5625 0
0.9375 0.59375 0
0.96875 0.59375 0
0.96875 0.5625 0
1 0.5625 0
0.96875 0.59375 0
1 0.59375 0
0.9375 0.59375 0
0.96875 0.59375 0
0.9375 0.625 0
0.96875 0.625 0
0.96875 0.59375 0
1 0.59375 0
0.96875 0.625 0
1 0.625 0
0.75 0.625 0
0.78125 0.625 0
0.75 0.65625 0
0.78125 0.65625 0
0.78125 0.625 0
0.8125 0.625 0
0.78125 0.65625 0
0.8125 0.65625 0
0.75 0.65625 0
0.78125 0.65625 0
0.75 0.6875 0
0.78125 0.6875 0
0.78125 0.65625 0
0.8125 0.65625 0
0.78125 0.6875 0
0.8125 0.6875 0
0.8125 0.625 0
0.84375 0.625 0
0.8125 0.65625 0
0.84375 0.65625 0
0.84375 0.625 0
0.875 0.625 0
0.84375 0.65625 0
0.875 0.65625 0
0.8125 0.65625 0
0.84375 0.65625 0
0.8125 0.6875 0
0.84375 0.6875 0
0.84375 0.65625 0
0.875 0.65625 0
0.84375 0.6875 0
0.875 0.6875 0
0.75 0.6875 0
0.78125 0.6875 0
0.75 0.71875 0
0.78125 0.71875 0
0.78125 0.6875 0
0.8125 0.6875 0
0.78125 0.71875 0
0.8125 0.71875 0
0.75 0.71875 0
0.78125 0.71875 0
0.75 0.75 0
0.78125 0.75 0
0.78125 0.71875 0
0.8125 0.71875 0
0.78125 0.75 0
0.8125 0.75 0
0.8125 0.6875 0
0.84375 0.6875 0
0.8125 0.71875 0
0.84375 0.71875 0
0.84375 0.6875 0
0.875 0.6875 0
0.84375 0.71875 0
0.875 0.71875 0
0.8125 0.71875 0
0.84375 0.71875 0
0.8125 0.75 0
0.84375 0.75 0
0.84375 0.71875 0
0.875 0.71875 0
0.84375 0.75 0
0.875 0.75 0
0.875 0.625 0
0.90625 0.625 0
0.875 0.65625 0
0.90625 0.65625 0
0.90625 0.625 0
0.9375 0.625 0
0.90625 0.65625 0
0.9375 0.65625 0
0.875 0.65625 0
0.90625 0.65625 0
0.875 0.6875 0
0.90625 0.6875 0
0.90625 0.65625 0
0.9375 0.65625 0
0.90625 0.6875 0
0.9375 0.6875 0
0.9375 0.625 0
0.96875 0.625 0
0.9375 0.65625 0
0.96875 0.65625 0
0.96875 0.625 0
1 0.625 0
0.96875 0.65625 0
1 0.65625 0
0.9375 0.65625 0
0.96875 0.65625 0
0.9375 0.6875 0
0.96875 0.6875 0
0.96875 0.65625 0
1 0.65625 0
0.96875 0.6875 0
1 0.6875 0
0.875 0.6875 0
0.90625 0.6875 0
0.875 0.71875 0
0.90625 0.71875 0
0.90625 0.6875 0
0.9375 0.6875 0
0.90625 0.71875 0
0.9375 0.71875 0
0.875 0.71875 0
0.90625 0.71875 0
0.875 0.75 0
0.90625 0.75 0
0.90625 0.71875 0
0.9375 0.71875 0
0.90625 0.75 0
0.9375 0.75 0
0.9375 0.6875 0
0.96875 0.6875 0
0.9375 0.71875 0
0.96875 0.71875 0
0.96875 0.6875 0
1 0.6875 0
0.96875 0.71875 0
1 0.71875 0
0.9375 0.71875 0
0.96875 0.71875 0
0.9375 0.75 0
0.96875 0.75 0
0.96875 0.71875 0
1 0.71875 0
0.96875 0.75 0
1 0.75 0
0.5 0.75 0
0.53125 0.75 0
0.5 0.78125 0
0.53125 0.78125 0
0.53125 0.75 0
0.5625 0.75 0
0.53125 0.78125 0
0.5625 0.78125 0
0.5 0.78125 0
0.53125 0.78125 0
0.5 0.8125 0
0.53125 0.8125 0
0.53125 0.78125 0
0.5625 0.78125 0
0.53125 0.8125 0
0.5625 0.8125 0
0.5625 0.75 0
0.59375 0.75 0
0.5625 0.78125 0
0.59375 0.78125 0
0.59375 0.75 0
0.625 0.75 0
0.59375 0.78125 0
0.625 0.78125 0
0.5625 0.78125 0
0.59375 0.78125 0
0.5625 0.8125 0
0.59375 0.8125 0
0.59375 0.78125 0
0.625 0.78125 0
0.59375 0.8125 0
0.625 0.8125 0
0.5 0.8125 0
0.53125 0.8125 0
0.5 0.84375 0
0.53125 0.84375 0
0.53125 0.8125 0
0.5625 0.8125 0
0.53125 0.84375 0
0.5625 0.84375 0
0.5 0.84375 0
0.53125 0.84375 0
0.5 0.875 0
0.53125 0.875 0
0.53125 0.84375 0
0.5625 0.84375 0
0.53125 0.875 0
0.5625 0.875 0
0.5625 0.8125 0
0.59375 0.8125 0
0.5625 0.84375 0
0.59375 0.84375 0
0.59375 0.8125 0
0.625 0.8125 0
0.59375 0.84375 0
0.625 0.84375 0
0.5625 0.84375 0
0.59375 0.84375 0
0.5625 0.875 0
0.59375 0.875 0
0.59375 0.84375 0
0.625 0.84375 0
0.59375 0.875 0
0.625 0.875 0
0.625 0.75 0
0.65625 0.75 0
0.625 0.78125 0
0.65625 0.78125 0
0.65625 0.75 0
0.6875 0.75 0
0.65625 0.78125 0
0.6875 0.78125 0
0.625 0.78125 0
0.65625 0.78125 0
0.625 0.8125 0
0.65625 0.8125 0
0.65625 0.78125 0
0.6875 0.78125 0
0.65625 0.8125 0
0.6875 0.8125 0
0.6875 0.75 0
0.71875 0.75 0
0.6875 0.78125 0
0.71875 0.78125 0
0.71875 0.75 0
0.75 0.75 0
0.71875 0.78125 0
0.75 0.78125 0
0.6875 0.78125 0
0.71875 0.78125 0
0.6875 0.8125 0
0.71875 0.8125 0
0.71875 0.78125 0
0.75 0.78125 0
0.71875 0.8125 0
0.75 0.8125 0
0.625 0.8125 0
0.65625 0.8125 0
0.625 0.84375 0
0.65625 0.84375 0
0.65625 0.8125 0
0.6875 0.8125 0
0.65625 0.84375 0
0.6875 0.84375 0
0.625 0.84375 0
0.65625 0.84375 0
0.625 0.875 0
0.65625 0.875 0
0.65625 0.84375 0
0.6875 0.84375 0
0.65625 0.875 0
0.6875 0.875 0
0.6875 0.8125 0
0.71875 0.8125 0
0.6875 0.84375 0
[...]
POINT_DATA 10288
SCALARS x_dis double 1
LOOKUP_TABLE default
3.20236e-07 3.7278e-05 -6.61824e-05 -1.90984e-05 3.7278e-05 7.12195e-05 -1.90984e-05 2.49007e-05 -6.61824e-05 -1.90984e-05 -0.00012738 -7.08625e-05 -1.90984e-05 2.49007e-05 -7.08625e-05 -1.77407e-05 -0.00012738 -7.08625e-05 -0.000181589 -0.000116796 -7.08625e-05 -1.77407e-05 -0.000116796 -5.57048e-05 -0.000181589 -0.000116796 -0.000227262 -0.000155894 -0.000116796 -5.57048e-05 -0.000155894 -8.8194e-05 -0.000380214 -0.00030204 -0.000427676 -0.000344577 -0.00030204 -0.000227262 -0.000344577 -0.000264339 -0.000427676 -0.000344577 -0.000462122 -0.000375649 -0.000344577 -0.000264339 -0.000375649 -0.000291822 -0.000227262 -0.000155894 -0.000264339 -0.000187603 -0.000155894 -8.8194e-05 -0.000187603 -0.000114674 -0.000264339 -0.000187603 -0.000291822 -0.000211335 -0.000187603 -0.000114674 -0.000211335 -0.000134703 0.000291612 0.000245626 0.000280551 0.000252134 0.000245626 0.00021185 0.000252134 0.00022769 0.000280551 0.000252134 0.000256389 0.00024605 0.000252134 0.00022769 0.00024605 0.0002335 0.00021185 0.0001855 0.00022769 0.000207345 0.0001855 0.000164399 0.000207345 0.000190602 0.00022769 0.000207345 0.0002335 0.000221419 0.000207345 0.000190602 0.000221419 0.000210763 0.000256389 0.00024605 0.000240628 0.000238626 0.00024605 0.0002335 0.000238626 0.000235221 0.000240628 0.000238626 0.000230417 0.000233216 0.000238626 0.000235221 0.000233216 0.000236201 0.0002335 0.000221419 0.000235221 0.00023101 0.000221419 0.000210763 0.00023101 0.000226822 0.000235221 0.00023101 0.000236201 0.000238614 0.00023101 0.000226822 0.000238614 0.000240511 0.000234038 0.000229609 0.000212546 0.000215187 0.000229609 0.000230417 0.000215187 0.000220955 0.000212546 0.000215187 0.000187526 0.000198365 0.000215187 0.000220955 0.000198365 0.000210773 0.000166846 0.000177349 0.000118942 0.000140005 0.000177349 0.000187526 0.000140005 0.000159926 0.000118942 0.000140005 7.12195e-05 0.000102456 0.000140005 0.000159926 0.000102456 0.000131887 0.000187526 0.000198365 0.000159926 0.000179603 0.000198365 0.000210773 0.000179603 0.000199423 0.000159926 0.000179603 0.000131887 0.000160089 0.000179603 0.000199423 0.000160089 0.000187409 0.000230417 0.000233216 0.000220955 0.000228838 0.000233216 0.000236201 0.000228838 0.000237303 0.000220955 0.000228838 0.000210773 0.000224373 0.000228838 0.000237303 0.000224373 0.000238349 0.000236201 0.000238614 0.000237303 0.000245467 0.000238614 0.000240511 0.000245467 0.000252954 0.000237303 0.000245467 0.000238349 0.000251951 0.000245467 0.000252954 0.000251951 0.000264707 0.000210773 0.000224373 0.000199423 0.000219377 0.000224373 0.000238349 0.000219377 0.000239094 0.000199423 0.000219377 0.000187409 0.000213925 0.000219377 0.000239094 0.000213925 0.000239508 0.000238349 0.000251951 0.000239094 0.000258096 0.000251951 0.000264707 0.000258096 0.00027596 0.000239094 0.000258096 0.000239508 0.000263887 0.000258096 0.00027596 0.000263887 0.000286733 0.000164399 0.000147392 0.000190602 0.000176967 0.000147392 0.000133805 0.000176967 0.000166041 0.000190602 0.000176967 0.000210763 0.000201806 0.000176967 0.000166041 0.000201806 0.000194554 0.000133805 0.000123205 0.000166041 0.00015751 0.000123205 0.000115264 0.00015751 0.000151119 0.000166041 0.00015751 0.000194554 0.000188921 0.00015751 0.000151119 0.000188921 0.000184796 0.000210763 0.000201806 0.000226822 0.000223131 0.000201806 0.000194554 0.000223131 0.000220157 0.000226822 0.000223131 0.000240511 0.000242132 0.000223131 0.000220157 0.000242132 0.00024367 0.000194554 0.000188921 0.000220157 0.000217983 0.000188921 0.000184796 0.000217983 0.000216623 0.000220157 0.000217983 0.00024367 0.000245252 0.000217983 0.000216623 0.000245252 0.000246953 0.000115264 0.000109693 0.000151119 0.000146641 0.000109693 0.000106179 0.000146641 0.000143861 0.000151119 0.000146641 0.000184796 0.000182063 0.000146641 0.000143861 0.000182063 0.000180612 0.000106179 0.00010436 0.000143861 0.00014256 0.00010436 0.000103865 0.00014256 0.00014243 0.000143861 0.00014256 0.000180612 0.0001803 0.00014256 0.00014243 0.0001803 0.000180873 0.000184796 0.000182063 0.000216623 0.000216066 0.000182063 0.000180612 0.000216066 0.000216281 0.000216623 0.000216066 0.000246953 0.000248826 0.000216066 0.000216281 0.000248826 0.000250896 0.000180612 0.0001803 0.000216281 0.000217194 0.0001803 0.000180873 0.000217194 0.000218611 0.000216281 0.000217194 0.000250896 0.00025315 0.000217194 0.000218611 0.00025315 0.000255492 0.000240511 0.000242132 0.000252954 0.000259702 0.000242132 0.00024367 0.000259702 0.000265759 0.000252954 0.000259702 0.000264707 0.000276374 0.000259702 0.000265759 0.000276374 0.000286856 0.00024367 0.000245252 0.000265759 0.0002712 0.000245252 0.000246953 0.0002712 0.000276102 0.000265759 0.0002712 0.000286856 0.000296144 0.0002712 0.000276102 0.000296144 0.000304276 0.000264707 0.000276374 0.00027596 0.000292374 0.000276374 0.000286856 0.000292374 0.00030715 0.00027596 0.000292374 0.000286733 0.000307726 0.000292374 0.00030715 0.000307726 0.000326632 0.000286856 0.000296144 0.00030715 0.000320205 0.000296144 0.000304276 0.000320205 0.000331526 0.00030715 0.000320205 0.000326632 0.000343317 0.000320205 0.000331526 0.000343317 0.000357727 0.000246953 0.000248826 0.000276102 0.000280533 0.000248826 0.000250896 0.000280533 0.000284556 0.000276102 0.000280533 0.000304276 0.000311311 0.000280533 0.000284556 0.000311311 0.000317319 0.000250896 0.00025315 0.000284556 0.000288206 0.00025315 0.000255492 0.000288206 0.000291492 0.000284556 0.000288206 0.000317319 0.000322376 0.000288206 0.000291492 0.000322376 0.00032657 0.000304276 0.000311311 0.000331526 0.000341145 0.000311311 0.000317319 0.000341145 0.000349125 0.000331526 0.000341145 0.000357727 0.000369859 0.000341145 0.000349125 0.000369859 0.000379754 0.000317319 0.000322376 0.000349125 0.000355558 0.000322376 0.00032657 0.000355558 0.000360584 0.000349125 0.000355558 0.000379754 0.000387501 0.000355558 0.000360584 0.000387501 0.000393256 7.12195e-05 0.000102456 2.49007e-05 6.59909e-05 0.000102456 0.000131887 6.59909e-05 0.000104486 2.49007e-05 6.59909e-05 -1.77407e-05 3.20957e-05 6.59909e-05 0.000104486 3.20957e-05 7.88581e-05 0.000131887 0.000160089 0.000104486 0.000140861 0.000160089 0.000187409 0.000140861 0.000175441 0.000104486 0.000140861 7.88581e-05 0.000122804 0.000140861 0.000175441 0.000122804 0.000164186 -1.77407e-05 3.20957e-05 -5.57048e-05 1.80691e-06 3.20957e-05 7.88581e-05 1.80691e-06 5.5862e-05 -5.57048e-05 1.80691e-06 -8.8194e-05 -2.42453e-05 1.80691e-06 5.5862e-05 -2.42453e-05 3.5976e-05 7.88581e-05 0.000122804 5.5862e-05 0.000106581 0.000122804 0.000164186 0.000106581 0.000154102 5.5862e-05 0.000106581 3.5976e-05 9.24801e-05 0.000106581 0.000154102 9.24801e-05 0.000145279 0.000187409 0.000213925 0.000175441 0.000208395 0.000213925 0.000239508 0.000208395 0.000239737 0.000175441 0.000208395 0.000164186 0.000203205 0.000208395 0.000239737 0.000203205 0.000239987 0.000239508 0.000263887 0.000239737 0.00026935 0.000263887 0.000286733 0.00026935 0.000296979 0.000239737 0.00026935 0.000239987 0.000274516 0.00026935 0.000296979 0.000274516 0.000306603 0.000164186 0.000203205 0.000154102 0.00019862 0.000203205 0.000239987 0.00019862 0.000240334 0.000154102 0.00019862 0.000145279 0.000194515 0.00019862 0.000240334 0.000194515 0.000240557 0.000239987 0.000274516 0.000240334 0.000279337 0.000274516 0.000306603 0.000279337 0.000315416 0.000240334 0.000279337 0.000240557 0.000283511 0.000279337 0.000315416 0.000283511 0.000323141 -8.8194e-05 -2.42453e-05 -0.000114674 -4.56729e-05 -2.42453e-05 3.5976e-05 -4.56729e-05 1.93856e-05 -0.000114674 -4.56729e-05 -0.000134703 -6.2151e-05 -4.56729e-05 1.93856e-05 -6.2151e-05 6.28295e-06 3.5976e-05 9.24801e-05 1.93856e-05 8.0478e-05 9.24801e-05 0.000145279 8.0478e-05 0.000137544 1.93856e-05 8.0478e-05 6.28295e-06 7.07396e-05 8.0478e-05 0.000137544 7.07396e-05 0.000131162 0.000145279 0.000194515 0.000137544 0.000190519 0.000194515 0.000240557 0.000190519 0.000239851 0.000137544 0.000190519 0.000131162 0.000187282 0.000190519 0.000239851 0.000187282 0.000238259 0.000240557 0.000283511 0.000239851 0.000286656 0.000283511 0.000323141 0.000286656 0.000329175 0.000239851 0.000286656 0.000238259 0.000286746 0.000286656 0.000329175 0.000286746 0.000333697 0.000286733 0.000307726 0.000296979 0.000322321 0.000307726 0.000326632 0.000322321 0.000345129 0.000296979 0.000322321 0.000306603 0.000335954 0.000322321 0.000345129 0.000335954 0.000362349 0.000326632 0.000343317 0.000345129 0.000365249 0.000343317 0.000357727 0.000365249 0.000382592 0.000345129 0.000365249 0.000362349 0.000385634 0.000365249 0.000382592 0.000385634 0.0004057 0.000306603 0.000335954 0.000315416 0.000348321 0.000335954 0.000362349 0.000348321 0.000377879 0.000315416 0.000348321 0.000323141 0.000358961 0.000348321 0.000377879 0.000358961 0.000391262 0.000362349 0.000385634 0.000377879 0.000404016 0.000385634 0.0004057 0.000404016 0.000426552 0.000377879 0.000404016 0.000391262 0.000419901 0.000404016 0.000426552 0.000419901 0.000444668 0.000357727 0.000369859 0.000382592 0.000397117 0.000369859 0.000379754 0.000397117 0.000408831 0.000382592 0.000397117 0.0004057 0.000422454 0.000397117 0.000408831 0.000422454 0.000435852 0.000379754 0.000387501 0.000408831 0.000417798 0.000387501 0.000393256 0.000417798 0.000424166 0.000408831 0.000417798 0.000435852 0.000445922 0.000417798 0.000424166 0.000445922 0.000452784 0.0004057 0.000422454 0.000426552 0.00044533 0.000422454 0.000435852 0.00044533 0.000460238 0.000426552 0.00044533 0.000444668 0.000465193 0.00044533 0.000460238 0.000465193 0.000481379 0.000435852 0.000445922 0.000460238 0.000471269 0.000445922 0.000452784 0.000471269 0.000478509 0.000460238 0.000471269 0.000481379 0.000493204 0.000471269 0.000478509 0.000493204 0.000500716 0.000323141 0.000358961 0.000329175 0.000367508 0.000358961 0.000391262 0.000367508 0.000401907 0.000329175 0.000367508 0.000333697 0.000372098 0.000367508 0.000401907 0.000372098 0.000410912 0.000391262 0.000419901 0.000401907 0.000433091 0.000419901 0.000444668 0.000433091 0.000459641 0.000401907 0.000433091 0.000410912 0.00044359 0.000433091 0.000459641 0.00044359 0.000471104 0.000333697 0.000372098 0.000332132 0.000381404 0.000372098 0.000410912 0.000381404 0.000419212 0.000332132 0.000381404 0.000363263 0.000393314 0.000381404 0.000419212 0.000393314 0.000423387 0.000410912 0.00044359 0.000419212 0.000451011 0.00044359 0.000471104 0.000451011 0.000478512 0.000419212 0.000451011 0.000423387 0.000453902 0.000451011 0.000478512 0.000453902 0.000481115 0.000444668 0.000465193 0.000459641 0.000481511 0.000465193 0.000481379 0.000481511 0.000498676 0.000459641 0.000481511 0.000471104 0.000493771 0.000481511 0.000498676 0.000493771 0.000511565 0.000481379 0.000493204 0.000498676 0.000511103 0.000493204 0.000500716 0.000511103 0.00051879 0.000498676 0.000511103 0.000511565 0.00052439 0.000511103 0.00051879 0.00052439 0.000532174 0.000471104 0.000493771 0.000478512 0.000501447 0.000493771 0.000511565 0.000501447 0.000519546 0.000478512 0.000501447 0.000481115 0.000504074 0.000501447 0.000519546 0.000504074 0.000522253 0.000511565 0.00052439 0.000519546 0.000532585 0.00052439 0.000532174 0.000532585 0.00054041 0.000519546 0.000532585 0.000522253 0.000535356 0.000532585 0.00054041 0.000535356 0.000543192 -0.000569357 -0.000492956 -0.000563123 -0.000487281 -0.000492956 -0.000419211 -0.000487281 -0.00041412 -0.000563123 -0.000487281 -0.000544503 -0.000470343 -0.000487281 -0.00041412 -0.000470343 -0.000398943 -0.000419211 -0.000348853 -0.00041412 -0.000344359 -0.000348853 -0.000282317 -0.000344359 -0.000278421 -0.00041412 -0.000344359 -0.000398943 -0.000330974 -0.000344359 -0.000278421 -0.000330974 -0.000266827 -0.000544503 -0.000470343 -0.00051374 -0.000442415 -0.000470343 -0.000398943 -0.000442415 -0.000373964 -0.00051374 -0.000442415 -0.000471244 -0.000403953 -0.000442415 -0.000373964 -0.000403953 -0.000339666 -0.000398943 -0.000330974 -0.000373964 -0.00030899 -0.000330974 -0.000266827 -0.00030899 -0.000247824 -0.000373964 -0.00030899 -0.000339666 -0.000278892 -0.00030899 -0.000247824 -0.000278892 -0.000221896 -0.000471244 -0.000403953 -0.000417603 -0.000355612 -0.000403953 -0.000339666 -0.000355612 -0.000296718 -0.000417603 -0.000355612 -0.000353659 -0.00029808 -0.000355612 -0.000296718 -0.00029808 -0.00024602 -0.000339666 -0.000278892 -0.000296718 -0.000241377 -0.000278892 -0.000221896 -0.000241377 -0.000189738 -0.000296718 -0.000241377 -0.00024602 -0.000197431 -0.000241377 -0.000189738 -0.000197431 -0.000152272 -0.00024602 -0.000197431 -0.000189219 -0.000148282 -0.000197431 -0.000152272 -0.000148282 -0.000110612 -0.000189219 -0.000148282 -0.000127088 -9.51824e-05 -0.000148282 -0.000110612 -9.51824e-05 -6.60656e-05 -0.000127088 -9.51824e-05 -6.17796e-05 -3.99516e-05 -9.51824e-05 -6.60656e-05 -3.99516e-05 -2.02232e-05 -6.17796e-05 -3.99516e-05 4.20855e-06 1.53677e-05 -3.99516e-05 -2.02232e-05 1.53677e-05 2.49977e-05 -0.000282317 -0.000219808 -0.000278421 -0.000216498 -0.000219808 -0.000161397 -0.000216498 -0.000158654 -0.000278421 -0.000216498 -0.000266827 -0.000206661 -0.000216498 -0.000158654 -0.000206661 -0.000150515 -0.000161397 -0.000107111 -0.000158654 -0.00010491 -0.000107111 -5.69335e-05 -0.00010491 -5.52413e-05 -0.000158654 -0.00010491 -0.000150515 -9.83867e-05 -0.00010491 -5.52413e-05 -9.83867e-05 -5.02367e-05 -0.000266827 -0.000206661 -0.000247824 -0.000190577 -0.000206661 -0.000150515 -0.000190577 -0.000137243 -0.000247824 -0.000190577 -0.000221896 -0.000168714 -0.000190577 -0.000137243 -0.000168714 -0.000119276 -0.000150515 -9.83867e-05 -0.000137243 -8.77833e-05 -9.83867e-05 -5.02367e-05 -8.77833e-05 -4.21327e-05 -0.000137243 -8.77833e-05 -0.000119276 -7.34965e-05 -8.77833e-05 -4.21327e-05 -7.34965e-05 -3.12765e-05 -5.69335e-05 -1.07928e-05 -5.52413e-05 -9.57427e-06 -1.07928e-05 3.14054e-05 -9.57427e-06 3.2188e-05 -5.52413e-05 -9.57427e-06 -5.02367e-05 -5.97959e-06 -9.57427e-06 3.2188e-05 -5.97959e-06 3.44862e-05 3.14054e-05 6.97548e-05 3.2188e-05 7.01399e-05 6.97548e-05 0.000104335 7.01399e-05 0.000104361 3.2188e-05 7.01399e-05 3.44862e-05 7.12571e-05 7.01399e-05 0.000104361 7.12571e-05 0.000104411 -5.02367e-05 -5.97959e-06 -4.21327e-05 -1.89607e-07 -5.97959e-06 3.44862e-05 -1.89607e-07 3.81542e-05 -4.21327e-05 -1.89607e-07 -3.12765e-05 7.50343e-06 -1.89607e-07 3.81542e-05 7.50343e-06 4.2956e-05 3.44862e-05 7.12571e-05 3.81542e-05 7.29949e-05 7.12571e-05 0.000104411 7.29949e-05 0.000104409 3.81542e-05 7.29949e-05 4.2956e-05 7.51756e-05 7.29949e-05 0.000104409 7.51756e-05 0.000104233 -0.000221896 -0.000168714 -0.000189738 -0.000141731 -0.000168714 -0.000119276 -0.000141731 -9.72218e-05 -0.000189738 -0.000141731 -0.000152272 -0.000110476 -0.000141731 -9.72218e-05 -0.000110476 -7.18499e-05 -0.000119276 -7.34965e-05 -9.72218e-05 -5.60696e-05 -7.34965e-05 -3.12765e-05 -5.60696e-05 -1.81388e-05 -9.72218e-05 -5.60696e-05 -7.18499e-05 -3.61846e-05 -5.60696e-05 -1.81388e-05 -3.61846e-05 -3.30704e-06 -0.000152272 -0.000110476 -0.000110612 -7.59794e-05 -0.000110476 -7.18499e-05 -7.59794e-05 -4.40888e-05 -0.000110612 -7.59794e-05 -6.60656e-05 -3.94685e-05 -7.59794e-05 -4.40888e-05 -3.94685e-05 -1.50427e-05 -7.18499e-05 -3.61846e-05 -4.40888e-05 -1.466e-05 -3.61846e-05 -3.30704e-06 -1.466e-05 1.25225e-05 -4.40888e-05 -1.466e-05 -1.50427e-05 7.54817e-06 -1.466e-05 1.25225e-05 7.54817e-06 2.85533e-05 -3.12765e-05 7.50343e-06 -1.81388e-05 1.6705e-05 7.50343e-06 4.2956e-05 1.6705e-05 4.8577e-05 -1.81388e-05 1.6705e-05 -3.30704e-06 2.69295e-05 1.6705e-05 4.8577e-05 2.69295e-05 5.46344e-05 4.2956e-05 7.51756e-05 4.8577e-05 7.75642e-05 7.51756e-05 0.000104233 7.75642e-05 0.000103727 4.8577e-05 7.75642e-05 5.46344e-05 7.98795e-05 7.75642e-05 0.000103727 7.98795e-05 0.000102707 -3.30704e-06 2.69295e-05 1.25225e-05 3.76085e-05 2.69295e-05 5.46344e-05 3.76085e-05 6.06876e-05 1.25225e-05 3.76085e-05 2.85533e-05 4.81003e-05 3.76085e-05 6.06876e-05 4.81003e-05 6.62467e-05 5.46344e-05 7.98795e-05 6.06876e-05 8.18031e-05 7.98795e-05 0.000102707 8.18031e-05 0.000100968 6.06876e-05 8.18031e-05 6.62467e-05 8.2989e-05 8.18031e-05 0.000100968 8.2989e-05 9.82918e-05 0.000104335 0.000135208 0.000104361 0.000134912 0.000135208 0.000162407 0.000134912 0.000161827 0.000104361 0.000134912 0.000104411 0.000134009 0.000134912 0.000161827 0.000134009 0.000160084 0.000162407 0.00018593 0.000161827 0.000185106 0.00018593 0.000205761 0.000185106 0.000204732 0.000161827 0.000185106 0.000160084 0.000182638 0.000185106 0.000204732 0.000182638 0.00020166 0.000104411 0.000134009 0.000104409 0.000132454 0.000134009 0.000160084 0.000132454 0.000157164 0.000104409 0.000132454 0.000104233 0.000130182 0.000132454 0.000157164 0.000130182 0.000153051 0.000160084 0.000182638 0.000157164 0.000178542 0.000182638 0.00020166 0.000178542 0.000196583 0.000157164 0.000178542 0.000153051 0.000172847 0.000178542 0.000196583 0.000172847 0.000189567 0.000205761 0.000221883 0.000204732 0.000220692 0.000221883 0.000234298 0.000220692 0.000232986 0.000204732 0.000220692 0.00020166 0.000217138 0.000220692 0.000232986 0.000217138 0.000229074 0.000234298 0.000243045 0.000232986 0.000241654 0.000243045 0.000248228 0.000241654 0.000246798 0.000232986 0.000241654 0.000229074 0.000237508 0.000241654 0.000246798 0.000237508 0.000242538 0.00020166 0.000217138 0.000196583 0.000211278 0.000217138 0.000229074 0.000211278 0.000222634 0.000196583 0.000211278 0.000189567 0.000203209 0.000211278 0.000222634 0.000203209 0.000213782 0.000229074 0.000237508 0.000222634 0.000230688 0.000237508 0.000242538 0.000230688 0.00023553 0.000222634 0.000230688 0.000213782 0.000221323 0.000230688 0.00023553 0.000221323 0.000225911 0.000104233 0.000130182 0.000103727 0.000127108 0.000130182 0.000153051 0.000127108 0.000147729 0.000103727 0.000127108 0.000102707 0.000123139 0.000127108 0.000147729 0.000123139 0.000141185 0.000153051 0.000172847 0.000147729 0.000165595 0.000172847 0.000189567 0.000165595 0.000180705 0.000147729 0.000165595 0.000141185 0.000156844 0.000165595 0.000180705 0.000156844 0.000170117 0.000102707 0.000123139 0.000100968 0.000118175 0.000123139 0.000141185 0.000118175 0.000133411 0.000100968 0.000118175 9.82918e-05 0.000112108 0.000118175 0.000133411 0.000112108 0.000124398 0.000141185 0.000156844 0.000133411 0.000146667 0.000156844 0.000170117 0.000146667 0.000157938 0.000133411 0.000146667 0.000124398 0.000135136 0.000146667 0.000157938 0.000135136 0.000144316 0.000189567 0.000203209 0.000180705 0.000193064 0.000203209 0.000213782 0.000193064 0.000202682 0.000180705 0.000193064 0.000170117 0.000181008 0.000193064 0.000202682 0.000181008 0.000189534 0.000213782 0.000221323 0.000202682 0.000209595 0.000221323 0.000225911 0.000209595 0.000213869 0.000202682 0.000209595 0.000189534 0.000195724 0.000209595 0.000213869 0.000195724 0.000199632 0.000170117 0.000181008 0.000157938 0.000167234 0.000181008 0.000189534 0.000167234 0.000174567 0.000157938 0.000167234 0.000144316 0.000151942 0.000167234 0.000174567 0.000151942 0.000158025 0.000189534 0.000195724 0.000174567 0.000179963 0.000195724 0.000199632 0.000179963 0.000183461 0.000174567 0.000179963 0.000158025 0.000162583 0.000179963 0.000183461 0.000162583 0.000165635 -6.60656e-05 -3.94685e-05 -2.02232e-05 -2.37409e-06 -3.94685e-05 -1.50427e-05 -2.37409e-06 1.40047e-05 -2.02232e-05 -2.37409e-06 2.49977e-05 3.35911e-05 -2.37409e-06 1.40047e-05 3.35911e-05 4.17516e-05 -1.50427e-05 7.54817e-06 1.40047e-05 2.9367e-05 7.54817e-06 2.85533e-05 2.9367e-05 4.38858e-05 1.40047e-05 2.9367e-05 4.17516e-05 4.95434e-05 2.9367e-05 4.38858e-05 4.95434e-05 5.75187e-05 4.17516e-05 4.95434e-05 6.59747e-05 6.66179e-05 4.95434e-05 5.75187e-05 6.66179e-05 6.84166e-05 6.59747e-05 6.66179e-05 8.54278e-05 7.9371e-05 6.66179e-05 6.84166e-05 7.9371e-05 7.56627e-05 2.85533e-05 4.81003e-05 4.38858e-05 5.7696e-05 4.81003e-05 6.62467e-05 5.7696e-05 7.07845e-05 4.38858e-05 5.7696e-05 5.75187e-05 6.56423e-05 5.7696e-05 7.07845e-05 6.56423e-05 7.37