# vtk DataFile Version 3.0
#This file was generated by the deal.II library on 2022/11/17 at 0:12:47
ASCII
DATASET UNSTRUCTURED_GRID

POINTS 4096 double
0 0.5 0
0.03125 0.5 0
0 0.53125 0
0.03125 0.53125 0
0.03125 0.5 0
0.0625 0.5 0
0.03125 0.53125 0
0.0625 0.53125 0
0 0.53125 0
0.03125 0.53125 0
0 0.5625 0
0.03125 0.5625 0
0.03125 0.53125 0
0.0625 0.53125 0
0.03125 0.5625 0
0.0625 0.5625 0
0.0625 0.5 0
0.09375 0.5 0
0.0625 0.53125 0
0.09375 0.53125 0
0.09375 0.5 0
0.125 0.5 0
0.09375 0.53125 0
0.125 0.53125 0
0.0625 0.53125 0
0.09375 0.53125 0
0.0625 0.5625 0
0.09375 0.5625 0
0.09375 0.53125 0
0.125 0.53125 0
0.09375 0.5625 0
0.125 0.5625 0
0 0.5625 0
0.03125 0.5625 0
0 0.59375 0
0.03125 0.59375 0
0.03125 0.5625 0
0.0625 0.5625 0
0.03125 0.59375 0
0.0625 0.59375 0
0 0.59375 0
0.03125 0.59375 0
0 0.625 0
0.03125 0.625 0
0.03125 0.59375 0
0.0625 0.59375 0
0.03125 0.625 0
0.0625 0.625 0
0.0625 0.5625 0
0.09375 0.5625 0
0.0625 0.59375 0
0.09375 0.59375 0
0.09375 0.5625 0
0.125 0.5625 0
0.09375 0.59375 0
0.125 0.59375 0
0.0625 0.59375 0
0.09375 0.59375 0
0.0625 0.625 0
0.09375 0.625 0
0.09375 0.59375 0
0.125 0.59375 0
0.09375 0.625 0
0.125 0.625 0
0.125 0.5 0
0.15625 0.5 0
0.125 0.53125 0
0.15625 0.53125 0
0.15625 0.5 0
0.1875 0.5 0
0.15625 0.53125 0
0.1875 0.53125 0
0.125 0.53125 0
0.15625 0.53125 0
0.125 0.5625 0
0.15625 0.5625 0
0.15625 0.53125 0
0.1875 0.53125 0
0.15625 0.5625 0
0.1875 0.5625 0
0.1875 0.5 0
0.21875 0.5 0
0.1875 0.53125 0
0.21875 0.53125 0
0.21875 0.5 0
0.25 0.5 0
0.21875 0.53125 0
0.25 0.53125 0
0.1875 0.53125 0
0.21875 0.53125 0
0.1875 0.5625 0
0.21875 0.5625 0
0.21875 0.53125 0
0.25 0.53125 0
0.21875 0.5625 0
0.25 0.5625 0
0.125 0.5625 0
0.15625 0.5625 0
0.125 0.59375 0
0.15625 0.59375 0
0.15625 0.5625 0
0.1875 0.5625 0
0.15625 0.59375 0
0.1875 0.59375 0
0.125 0.59375 0
0.15625 0.59375 0
0.125 0.625 0
0.15625 0.625 0
0.15625 0.59375 0
0.1875 0.59375 0
0.15625 0.625 0
0.1875 0.625 0
0.1875 0.5625 0
0.21875 0.5625 0
0.1875 0.59375 0
0.21875 0.59375 0
0.21875 0.5625 0
0.25 0.5625 0
0.21875 0.59375 0
0.25 0.59375 0
0.1875 0.59375 0
0.21875 0.59375 0
0.1875 0.625 0
0.21875 0.625 0
0.21875 0.59375 0
0.25 0.59375 0
0.21875 0.625 0
0.25 0.625 0
0 0.625 0
0.03125 0.625 0
0 0.65625 0
0.03125 0.65625 0
0.03125 0.625 0
0.0625 0.625 0
0.03125 0.65625 0
0.0625 0.65625 0
0 0.65625 0
0.03125 0.65625 0
0 0.6875 0
0.03125 0.6875 0
0.03125 0.65625 0
0.0625 0.65625 0
0.03125 0.6875 0
0.0625 0.6875 0
0.0625 0.625 0
0.09375 0.625 0
0.0625 0.65625 0
0.09375 0.65625 0
0.09375 0.625 0
0.125 0.625 0
0.09375 0.65625 0
0.125 0.65625 0
0.0625 0.65625 0
0.09375 0.65625 0
0.0625 0.6875 0
0.09375 0.6875 0
0.09375 0.65625 0
0.125 0.65625 0
0.09375 0.6875 0
0.125 0.6875 0
0 0.6875 0
0.03125 0.6875 0
0 0.71875 0
0.03125 0.71875 0
0.03125 0.6875 0
0.0625 0.6875 0
0.03125 0.71875 0
0.0625 0.71875 0
0 0.71875 0
0.03125 0.71875 0
0 0.75 0
0.03125 0.75 0
0.03125 0.71875 0
0.0625 0.71875 0
0.03125 0.75 0
0.0625 0.75 0
0.0625 0.6875 0
0.09375 0.6875 0
0.0625 0.71875 0
0.09375 0.71875 0
0.09375 0.6875 0
0.125 0.6875 0
0.09375 0.71875 0
0.125 0.71875 0
0.0625 0.71875 0
0.09375 0.71875 0
0.0625 0.75 0
0.09375 0.75 0
0.09375 0.71875 0
0.125 0.71875 0
0.09375 0.75 0
0.125 0.75 0
0.125 0.625 0
0.15625 0.625 0
0.125 0.65625 0
0.15625 0.65625 0
0.15625 0.625 0
0.1875 0.625 0
0.15625 0.65625 0
0.1875 0.65625 0
0.125 0.65625 0
0.15625 0.65625 0
0.125 0.6875 0
0.15625 0.6875 0
0.15625 0.65625 0
0.1875 0.65625 0
0.15625 0.6875 0
0.1875 0.6875 0
0.1875 0.625 0
0.21875 0.625 0
0.1875 0.65625 0
0.21875 0.65625 0
0.21875 0.625 0
0.25 0.625 0
0.21875 0.65625 0
0.25 0.65625 0
0.1875 0.65625 0
0.21875 0.65625 0
0.1875 0.6875 0
0.21875 0.6875 0
0.21875 0.65625 0
0.25 0.65625 0
0.21875 0.6875 0
0.25 0.6875 0
0.125 0.6875 0
0.15625 0.6875 0
0.125 0.71875 0
0.15625 0.71875 0
0.15625 0.6875 0
0.1875 0.6875 0
0.15625 0.71875 0
0.1875 0.71875 0
0.125 0.71875 0
0.15625 0.71875 0
0.125 0.75 0
0.15625 0.75 0
0.15625 0.71875 0
0.1875 0.71875 0
0.15625 0.75 0
0.1875 0.75 0
0.1875 0.6875 0
0.21875 0.6875 0
0.1875 0.71875 0
0.21875 0.71875 0
0.21875 0.6875 0
0.25 0.6875 0
0.21875 0.71875 0
0.25 0.71875 0
0.1875 0.71875 0
0.21875 0.71875 0
0.1875 0.75 0
0.21875 0.75 0
0.21875 0.71875 0
0.25 0.71875 0
0.21875 0.75 0
0.25 0.75 0
0.25 0.5 0
0.28125 0.5 0
0.25 0.53125 0
0.28125 0.53125 0
0.28125 0.5 0
0.3125 0.5 0
0.28125 0.53125 0
0.3125 0.53125 0
0.25 0.53125 0
0.28125 0.53125 0
0.25 0.5625 0
0.28125 0.5625 0
0.28125 0.53125 0
0.3125 0.53125 0
0.28125 0.5625 0
0.3125 0.5625 0
0.3125 0.5 0
0.34375 0.5 0
0.3125 0.53125 0
0.34375 0.53125 0
0.34375 0.5 0
0.375 0.5 0
0.34375 0.53125 0
0.375 0.53125 0
0.3125 0.53125 0
0.34375 0.53125 0
0.3125 0.5625 0
0.34375 0.5625 0
0.34375 0.53125 0
0.375 0.53125 0
0.34375 0.5625 0
0.375 0.5625 0
0.25 0.5625 0
0.28125 0.5625 0
0.25 0.59375 0
0.28125 0.59375 0
0.28125 0.5625 0
0.3125 0.5625 0
0.28125 0.59375 0
0.3125 0.59375 0
0.25 0.59375 0
0.28125 0.59375 0
0.25 0.625 0
0.28125 0.625 0
0.28125 0.59375 0
0.3125 0.59375 0
0.28125 0.625 0
0.3125 0.625 0
0.3125 0.5625 0
0.34375 0.5625 0
0.3125 0.59375 0
0.34375 0.59375 0
0.34375 0.5625 0
0.375 0.5625 0
0.34375 0.59375 0
0.375 0.59375 0
0.3125 0.59375 0
0.34375 0.59375 0
0.3125 0.625 0
0.34375 0.625 0
0.34375 0.59375 0
0.375 0.59375 0
0.34375 0.625 0
0.375 0.625 0
0.375 0.5 0
0.40625 0.5 0
0.375 0.53125 0
0.40625 0.53125 0
0.40625 0.5 0
0.4375 0.5 0
0.40625 0.53125 0
0.4375 0.53125 0
0.375 0.53125 0
0.40625 0.53125 0
0.375 0.5625 0
0.40625 0.5625 0
0.40625 0.53125 0
0.4375 0.53125 0
0.40625 0.5625 0
0.4375 0.5625 0
0.4375 0.5 0
0.46875 0.5 0
0.4375 0.53125 0
0.46875 0.53125 0
0.46875 0.5 0
0.5 0.5 0
0.46875 0.53125 0
0.5 0.53125 0
0.4375 0.53125 0
0.46875 0.53125 0
0.4375 0.5625 0
0.46875 0.5625 0
0.46875 0.53125 0
0.5 0.53125 0
0.46875 0.5625 0
0.5 0.5625 0
0.375 0.5625 0
0.40625 0.5625 0
0.375 0.59375 0
0.40625 0.59375 0
0.40625 0.5625 0
0.4375 0.5625 0
0.40625 0.59375 0
0.4375 0.59375 0
0.375 0.59375 0
0.40625 0.59375 0
0.375 0.625 0
0.40625 0.625 0
0.40625 0.59375 0
0.4375 0.59375 0
0.40625 0.625 0
0.4375 0.625 0
0.4375 0.5625 0
0.46875 0.5625 0
0.4375 0.59375 0
0.46875 0.59375 0
0.46875 0.5625 0
0.5 0.5625 0
0.46875 0.59375 0
0.5 0.59375 0
0.4375 0.59375 0
0.46875 0.59375 0
0.4375 0.625 0
0.46875 0.625 0
0.46875 0.59375 0
0.5 0.59375 0
0.46875 0.625 0
0.5 0.625 0
0.25 0.625 0
0.28125 0.625 0
0.25 0.65625 0
0.28125 0.65625 0
0.28125 0.625 0
0.3125 0.625 0
0.28125 0.65625 0
0.3125 0.65625 0
0.25 0.65625 0
0.28125 0.65625 0
0.25 0.6875 0
0.28125 0.6875 0
0.28125 0.65625 0
0.3125 0.65625 0
0.28125 0.6875 0
0.3125 0.6875 0
0.3125 0.625 0
0.34375 0.625 0
0.3125 0.65625 0
0.34375 0.65625 0
0.34375 0.625 0
0.375 0.625 0
0.34375 0.65625 0
0.375 0.65625 0
0.3125 0.65625 0
0.34375 0.65625 0
0.3125 0.6875 0
0.34375 0.6875 0
0.34375 0.65625 0
0.375 0.65625 0
0.34375 0.6875 0
0.375 0.6875 0
0.25 0.6875 0
0.28125 0.6875 0
0.25 0.71875 0
0.28125 0.71875 0
0.28125 0.6875 0
0.3125 0.6875 0
0.28125 0.71875 0
0.3125 0.71875 0
0.25 0.71875 0
0.28125 0.71875 0
0.25 0.75 0
0.28125 0.75 0
0.28125 0.71875 0
0.3125 0.71875 0
0.28125 0.75 0
0.3125 0.75 0
0.3125 0.6875 0
0.34375 0.6875 0
0.3125 0.71875 0
0.34375 0.71875 0
0.34375 0.6875 0
0.375 0.6875 0
0.34375 0.71875 0
0.375 0.71875 0
0.3125 0.71875 0
0.34375 0.71875 0
0.3125 0.75 0
0.34375 0.75 0
0.34375 0.71875 0
0.375 0.71875 0
0.34375 0.75 0
0.375 0.75 0
0.375 0.625 0
0.40625 0.625 0
0.375 0.65625 0
0.40625 0.65625 0
0.40625 0.625 0
0.4375 0.625 0
0.40625 0.65625 0
0.4375 0.65625 0
0.375 0.65625 0
0.40625 0.65625 0
0.375 0.6875 0
0.40625 0.6875 0
0.40625 0.65625 0
0.4375 0.65625 0
0.40625 0.6875 0
0.4375 0.6875 0
0.4375 0.625 0
0.46875 0.625 0
0.4375 0.65625 0
0.46875 0.65625 0
0.46875 0.625 0
0.5 0.625 0
0.46875 0.65625 0
0.5 0.65625 0
0.4375 0.65625 0
0.46875 0.65625 0
0.4375 0.6875 0
0.46875 0.6875 0
0.46875 0.65625 0
0.5 0.65625 0
0.46875 0.6875 0
0.5 0.6875 0
0.375 0.6875 0
0.40625 0.6875 0
0.375 0.71875 0
0.40625 0.71875 0
0.40625 0.6875 0
0.4375 0.6875 0
0.40625 0.71875 0
0.4375 0.71875 0
0.375 0.71875 0
0.40625 0.71875 0
0.375 0.75 0
0.40625 0.75 0
0.40625 0.71875 0
0.4375 0.71875 0
0.40625 0.75 0
0.4375 0.75 0
0.4375 0.6875 0
0.46875 0.6875 0
0.4375 0.71875 0
0.46875 0.71875 0
0.46875 0.6875 0
0.5 0.6875 0
0.46875 0.71875 0
0.5 0.71875 0
0.4375 0.71875 0
0.46875 0.71875 0
0.4375 0.75 0
0.46875 0.75 0
0.46875 0.71875 0
0.5 0.71875 0
0.46875 0.75 0
0.5 0.75 0
0 0.75 0
0.03125 0.75 0
0 0.78125 0
0.03125 0.78125 0
0.03125 0.75 0
0.0625 0.75 0
0.03125 0.78125 0
0.0625 0.78125 0
0 0.78125 0
0.03125 0.78125 0
0 0.8125 0
0.03125 0.8125 0
0.03125 0.78125 0
0.0625 0.78125 0
0.03125 0.8125 0
0.0625 0.8125 0
0.0625 0.75 0
0.09375 0.75 0
0.0625 0.78125 0
0.09375 0.78125 0
0.09375 0.75 0
0.125 0.75 0
0.09375 0.78125 0
0.125 0.78125 0
0.0625 0.78125 0
0.09375 0.78125 0
0.0625 0.8125 0
0.09375 0.8125 0
0.09375 0.78125 0
0.125 0.78125 0
0.09375 0.8125 0
0.125 0.8125 0
0 0.8125 0
0.03125 0.8125 0
0 0.84375 0
0.03125 0.84375 0
0.03125 0.8125 0
0.0625 0.8125 0
0.03125 0.84375 0
0.0625 0.84375 0
0 0.84375 0
0.03125 0.84375 0
0 0.875 0
0.03125 0.875 0
0.03125 0.84375 0
0.0625 0.84375 0
0.03125 0.875 0
0.0625 0.875 0
0.0625 0.8125 0
0.09375 0.8125 0
0.0625 0.84375 0
0.09375 0.84375 0
0.09375 0.8125 0
0.125 0.8125 0
0.09375 0.84375 0
0.125 0.84375 0
0.0625 0.84375 0
0.09375 0.84375 0
0.0625 0.875 0
0.09375 0.875 0
0.09375 0.84375 0
0.125 0.84375 0
0.09375 0.875 0
0.125 0.875 0
0.125 0.75 0
0.15625 0.75 0
0.125 0.78125 0
0.15625 0.78125 0
0.15625 0.75 0
0.1875 0.75 0
0.15625 0.78125 0
0.1875 0.78125 0
0.125 0.78125 0
0.15625 0.78125 0
0.125 0.8125 0
0.15625 0.8125 0
0.15625 0.78125 0
0.1875 0.78125 0
0.15625 0.8125 0
0.1875 0.8125 0
0.1875 0.75 0
0.21875 0.75 0
0.1875 0.78125 0
0.21875 0.78125 0
0.21875 0.75 0
0.25 0.75 0
0.21875 0.78125 0
0.25 0.78125 0
0.1875 0.78125 0
0.21875 0.78125 0
0.1875 0.8125 0
0.21875 0.8125 0
0.21875 0.78125 0
0.25 0.78125 0
0.21875 0.8125 0
0.25 0.8125 0
0.125 0.8125 0
0.15625 0.8125 0
0.125 0.84375 0
0.15625 0.84375 0
0.15625 0.8125 0
[...]
POINT_DATA 4096
SCALARS x_dis double 1
LOOKUP_TABLE default
0.000581496 0.000554952 0.000586281 0.000560302 0.000554952 0.00052708 0.000560302 0.000532885 0.000586281 0.000560302 0.000587619 0.000561896 0.000560302 0.000532885 0.000561896 0.000534653 0.00052708 0.000498536 0.000532885 0.000504628 0.000498536 0.000469776 0.000504628 0.00047594 0.000532885 0.000504628 0.000534653 0.000506371 0.000504628 0.00047594 0.000506371 0.000477377 0.000587619 0.000561896 0.000585889 0.000560161 0.000561896 0.000534653 0.000560161 0.000532843 0.000585889 0.000560161 0.000581642 0.000555704 0.000560161 0.000532843 0.000555704 0.000528109 0.000534653 0.000506371 0.000532843 0.000504265 0.000506371 0.000477377 0.000504265 0.000474642 0.000532843 0.000504265 0.000528109 0.000499019 0.000504265 0.000474642 0.000499019 0.000468528 0.000469776 0.000441142 0.00047594 0.000447123 0.000441142 0.000412924 0.000447123 0.000418424 0.00047594 0.000447123 0.000477377 0.000447898 0.000447123 0.000418424 0.000447898 0.000418104 0.000412924 0.000385416 0.000418424 0.000390083 0.000385416 0.000358956 0.000390083 0.000362364 0.000418424 0.000390083 0.000418104 0.000388136 0.000390083 0.000362364 0.000388136 0.000358119 0.000477377 0.000447898 0.000474642 0.00044411 0.000447898 0.000418104 0.00044411 0.000412745 0.000474642 0.00044411 0.000468528 0.000436674 0.00044411 0.000412745 0.000436674 0.000403445 0.000418104 0.000388136 0.000412745 0.000380574 0.000388136 0.000358119 0.000380574 0.000347571 0.000412745 0.000380574 0.000403445 0.000368772 0.000380574 0.000347571 0.000368772 0.000332515 0.000581642 0.000555704 0.000575517 0.000549228 0.000555704 0.000528109 0.000549228 0.000521213 0.000575517 0.000549228 0.000568173 0.000541457 0.000549228 0.000521213 0.000541457 0.000512934 0.000528109 0.000499019 0.000521213 0.000491462 0.000499019 0.000468528 0.000491462 0.000459955 0.000521213 0.000491462 0.000512934 0.000482444 0.000491462 0.000459955 0.000482444 0.000449864 0.000568173 0.000541457 0.000560237 0.000533068 0.000541457 0.000512934 0.000533068 0.000504003 0.000560237 0.000533068 0.000552256 0.000524652 0.000533068 0.000504003 0.000524652 0.000495054 0.000512934 0.000482444 0.000504003 0.000472756 0.000482444 0.000449864 0.000472756 0.000439122 0.000504003 0.000472756 0.000495054 0.000463081 0.000472756 0.000439122 0.000463081 0.00042847 0.000468528 0.000436674 0.000459955 0.000426644 0.000436674 0.000403445 0.000426644 0.000391445 0.000459955 0.000426644 0.000449864 0.000415079 0.000426644 0.000391445 0.000415079 0.000377965 0.000403445 0.000368772 0.000391445 0.000354233 0.000368772 0.000332515 0.000354233 0.000314818 0.000391445 0.000354233 0.000377965 0.000338379 0.000354233 0.000314818 0.000338379 0.000296146 0.000449864 0.000415079 0.000439122 0.000402944 0.000415079 0.000377965 0.000402944 0.000364082 0.000439122 0.000402944 0.00042847 0.000391041 0.000402944 0.000364082 0.000391041 0.000350665 0.000377965 0.000338379 0.000364082 0.000322413 0.000338379 0.000296146 0.000322413 0.00027782 0.000364082 0.000322413 0.000350665 0.000307259 0.000322413 0.00027782 0.000307259 0.000260788 0.000358956 0.00033396 0.000362364 0.000335579 0.00033396 0.000310965 0.000335579 0.000310101 0.000362364 0.000335579 0.000358119 0.000328154 0.000335579 0.000310101 0.000328154 0.000298283 0.000310965 0.000290682 0.000310101 0.000286355 0.000290682 0.000274103 0.000286355 0.000264767 0.000310101 0.000286355 0.000298283 0.000268377 0.000286355 0.000264767 0.000268377 0.000237885 0.000358119 0.000328154 0.000347571 0.000313624 0.000328154 0.000298283 0.000313624 0.000278471 0.000347571 0.000313624 0.000332515 0.000294427 0.000313624 0.000278471 0.000294427 0.0002541 0.000298283 0.000268377 0.000278471 0.000241564 0.000268377 0.000237885 0.000241564 0.000201844 0.000278471 0.000241564 0.0002541 0.000210893 0.000241564 0.000201844 0.000210893 0.000163877 0.000274103 0.000262799 0.000264767 0.00024553 0.000262799 0.000259589 0.00024553 0.000227814 0.000264767 0.00024553 0.000237885 0.000205239 0.00024553 0.000227814 0.000205239 0.000166401 0.000259589 0.000273757 0.000227814 0.000203653 0.000273757 0.000308744 0.000203653 0.00013914 0.000227814 0.000203653 0.000166401 0.000112469 0.000203653 0.00013914 0.000112469 5.09111e-05 0.000237885 0.000205239 0.000201844 0.000157424 0.000205239 0.000166401 0.000157424 0.000105494 0.000201844 0.000157424 0.000163877 0.000111961 0.000157424 0.000105494 0.000111961 5.48582e-05 0.000166401 0.000112469 0.000105494 4.62888e-05 0.000112469 5.09111e-05 4.62888e-05 -1.36015e-05 0.000105494 4.62888e-05 5.48582e-05 -5.44645e-06 4.62888e-05 -1.36015e-05 -5.44645e-06 -6.36029e-05 0.000332515 0.000294427 0.000314818 0.000272924 0.000294427 0.0002541 0.000272924 0.000228169 0.000314818 0.000272924 0.000296146 0.000251048 0.000272924 0.000228169 0.000251048 0.000202844 0.0002541 0.000210893 0.000228169 0.000180078 0.000210893 0.000163877 0.000180078 0.000128173 0.000228169 0.000180078 0.000202844 0.00015133 0.000180078 0.000128173 0.00015133 9.64856e-05 0.000296146 0.000251048 0.00027782 0.000230197 0.000251048 0.000202844 0.000230197 0.000179483 0.00027782 0.000230197 0.000260788 0.000211272 0.000230197 0.000179483 0.000211272 0.000158828 0.000202844 0.00015133 0.000179483 0.000125739 0.00015133 9.64856e-05 0.000125739 6.92752e-05 0.000179483 0.000125739 0.000158828 0.000103728 0.000125739 6.92752e-05 0.000103728 4.64914e-05 0.000163877 0.000111961 0.000128173 7.23084e-05 0.000111961 5.48582e-05 7.23084e-05 1.32553e-05 0.000128173 7.23084e-05 9.64856e-05 3.87332e-05 7.23084e-05 1.32553e-05 3.87332e-05 -2.07363e-05 5.48582e-05 -5.44645e-06 1.32553e-05 -4.66334e-05 -5.44645e-06 -6.36029e-05 -4.66334e-05 -0.000103494 1.32553e-05 -4.66334e-05 -2.07363e-05 -7.97742e-05 -4.66334e-05 -0.000103494 -7.97742e-05 -0.000135497 9.64856e-05 3.87332e-05 6.92752e-05 1.08141e-05 3.87332e-05 -2.07363e-05 1.08141e-05 -4.83607e-05 6.92752e-05 1.08141e-05 4.64914e-05 -1.20233e-05 1.08141e-05 -4.83607e-05 -1.20233e-05 -7.05638e-05 -2.07363e-05 -7.97742e-05 -4.83607e-05 -0.000106384 -7.97742e-05 -0.000135497 -0.000106384 -0.000161032 -4.83607e-05 -0.000106384 -7.05638e-05 -0.000127524 -0.000106384 -0.000161032 -0.000127524 -0.000181117 0.000552256 0.000524652 0.00054467 0.00051668 0.000524652 0.000495054 0.00051668 0.000486591 0.00054467 0.00051668 0.000537807 0.000509496 0.00051668 0.000486591 0.000509496 0.000478977 0.000495054 0.000463081 0.000486591 0.000453957 0.000463081 0.00042847 0.000453957 0.000418483 0.000486591 0.000453957 0.000478977 0.000445771 0.000453957 0.000418483 0.000445771 0.000409567 0.000537807 0.000509496 0.000531881 0.000503321 0.000509496 0.000478977 0.000503321 0.000472444 0.000531881 0.000503321 0.000527013 0.000498271 0.000503321 0.000472444 0.000498271 0.000467112 0.000478977 0.000445771 0.000472444 0.000438763 0.000445771 0.000409567 0.000438763 0.000401967 0.000472444 0.000438763 0.000467112 0.000433054 0.000438763 0.000401967 0.000433054 0.000395796 0.00042847 0.000391041 0.000418483 0.000379982 0.000391041 0.000350665 0.000379982 0.000338348 0.000418483 0.000379982 0.000409567 0.000370184 0.000379982 0.000338348 0.000370184 0.000327547 0.000350665 0.000307259 0.000338348 0.000293556 0.000307259 0.000260788 0.000293556 0.000245653 0.000338348 0.000293556 0.000327547 0.000281686 0.000293556 0.000245653 0.000281686 0.000232734 0.000409567 0.000370184 0.000401967 0.000361887 0.000370184 0.000327547 0.000361887 0.00031848 0.000401967 0.000361887 0.000395796 0.000355189 0.000361887 0.00031848 0.000355189 0.000311217 0.000327547 0.000281686 0.00031848 0.000271829 0.000281686 0.000232734 0.000271829 0.000222137 0.00031848 0.000271829 0.000311217 0.000264005 0.000271829 0.000222137 0.000264005 0.000213812 0.000527013 0.000498271 0.000523251 0.000494385 0.000498271 0.000467112 0.000494385 0.000463015 0.000523251 0.000494385 0.000520592 0.000491649 0.000494385 0.000463015 0.000491649 0.000460134 0.000467112 0.000433054 0.000463015 0.000428674 0.000433054 0.000395796 0.000428674 0.000391075 0.000463015 0.000428674 0.000460134 0.000425598 0.000428674 0.000391075 0.000425598 0.000387766 0.000520592 0.000491649 0.000519013 0.000490029 0.000491649 0.000460134 0.000490029 0.00045843 0.000519013 0.000490029 0.00051849 0.000489493 0.000490029 0.00045843 0.000489493 0.000457866 0.000460134 0.000425598 0.00045843 0.000423779 0.000425598 0.000387766 0.000423779 0.000385811 0.00045843 0.000423779 0.000457866 0.000423177 0.000423779 0.000385811 0.000423177 0.000385165 0.000395796 0.000355189 0.000391075 0.000350085 0.000355189 0.000311217 0.000350085 0.000305717 0.000391075 0.000350085 0.000387766 0.00034652 0.000350085 0.000305717 0.00034652 0.000301892 0.000311217 0.000264005 0.000305717 0.000258127 0.000264005 0.000213812 0.000258127 0.000207613 0.000305717 0.000258127 0.000301892 0.000254064 0.000258127 0.000207613 0.000254064 0.000203359 0.000387766 0.00034652 0.000385811 0.000344419 0.00034652 0.000301892 0.000344419 0.000299646 0.000385811 0.000344419 0.000385165 0.000343726 0.000344419 0.000299646 0.000343726 0.000298907 0.000301892 0.000254064 0.000299646 0.000251688 0.000254064 0.000203359 0.000251688 0.000200882 0.000299646 0.000251688 0.000298907 0.000250906 0.000251688 0.000200882 0.000250906 0.00020007 0.000260788 0.000211272 0.000245653 0.000194781 0.000211272 0.000158828 0.000194781 0.000141204 0.000245653 0.000194781 0.000232734 0.000180933 0.000194781 0.000141204 0.000180933 0.000126659 0.000158828 0.000103728 0.000141204 8.53487e-05 0.000103728 4.64914e-05 8.53487e-05 2.78612e-05 0.000141204 8.53487e-05 0.000126659 7.04452e-05 8.53487e-05 2.78612e-05 7.04452e-05 1.30117e-05 0.000232734 0.000180933 0.000222137 0.000169727 0.000180933 0.000126659 0.000169727 0.000115059 0.000222137 0.000169727 0.000213812 0.000161023 0.000169727 0.000115059 0.000161023 0.000106158 0.000126659 7.04452e-05 0.000115059 5.87354e-05 7.04452e-05 1.30117e-05 5.87354e-05 1.51728e-06 0.000115059 5.87354e-05 0.000106158 4.98661e-05 5.87354e-05 1.51728e-06 4.98661e-05 -7.07257e-06 4.64914e-05 -1.20233e-05 2.78612e-05 -3.03513e-05 -1.20233e-05 -7.05638e-05 -3.03513e-05 -8.81083e-05 2.78612e-05 -3.03513e-05 1.30117e-05 -4.47246e-05 -3.03513e-05 -8.81083e-05 -4.47246e-05 -0.000101663 -7.05638e-05 -0.000127524 -8.81083e-05 -0.000144014 -0.000127524 -0.000181117 -0.000144014 -0.000196583 -8.81083e-05 -0.000144014 -0.000101663 -0.000156568 -0.000144014 -0.000196583 -0.000156568 -0.000208164 1.30117e-05 -4.47246e-05 1.51728e-06 -5.56869e-05 -4.47246e-05 -0.000101663 -5.56869e-05 -0.000111843 1.51728e-06 -5.56869e-05 -7.07257e-06 -6.37629e-05 -5.56869e-05 -0.000111843 -6.37629e-05 -0.000119221 -0.000101663 -0.000156568 -0.000111843 -0.000165836 -0.000156568 -0.000208164 -0.000165836 -0.000216536 -0.000111843 -0.000165836 -0.000119221 -0.000172416 -0.000165836 -0.000216536 -0.000172416 -0.000222329 0.000213812 0.000161023 0.000207613 0.000154605 0.000161023 0.000106158 0.000154605 9.96611e-05 0.000207613 0.000154605 0.000203359 0.000150234 0.000154605 9.96611e-05 0.000150234 9.5274e-05 0.000106158 4.98661e-05 9.96611e-05 4.34629e-05 4.98661e-05 -7.07257e-06 4.34629e-05 -1.31988e-05 9.96611e-05 4.34629e-05 9.5274e-05 3.91791e-05 4.34629e-05 -1.31988e-05 3.91791e-05 -1.7252e-05 0.000203359 0.000150234 0.000200882 0.000147703 0.000150234 9.5274e-05 0.000147703 9.27501e-05 0.000200882 0.000147703 0.00020007 0.000146875 0.000147703 9.27501e-05 0.000146875 9.19277e-05 9.5274e-05 3.91791e-05 9.27501e-05 3.67332e-05 3.91791e-05 -1.7252e-05 3.67332e-05 -1.95459e-05 9.27501e-05 3.67332e-05 9.19277e-05 3.59395e-05 3.67332e-05 -1.95459e-05 3.59395e-05 -2.02866e-05 -7.07257e-06 -6.37629e-05 -1.31988e-05 -6.94403e-05 -6.37629e-05 -0.000119221 -6.94403e-05 -0.000124316 -1.31988e-05 -6.94403e-05 -1.7252e-05 -7.31454e-05 -6.94403e-05 -0.000124316 -7.31454e-05 -0.000127583 -0.000119221 -0.000172416 -0.000124316 -0.000176857 -0.000172416 -0.000222329 -0.000176857 -0.000226124 -0.000124316 -0.000176857 -0.000127583 -0.00017964 -0.000176857 -0.000226124 -0.00017964 -0.000228428 -1.7252e-05 -7.31454e-05 -1.95459e-05 -7.52197e-05 -7.31454e-05 -0.000127583 -7.52197e-05 -0.000129386 -1.95459e-05 -7.52197e-05 -2.02866e-05 -7.58854e-05 -7.52197e-05 -0.000129386 -7.58854e-05 -0.00012996 -0.000127583 -0.00017964 -0.000129386 -0.000181147 -0.00017964 -0.000228428 -0.000181147 -0.000229639 -0.000129386 -0.000181147 -0.00012996 -0.000181621 -0.000181147 -0.000229639 -0.000181621 -0.000230014 0.000308744 0.000309994 0.00013914 9.875e-05 0.000309994 0.000270516 9.875e-05 0.000101112 0.00013914 9.875e-05 5.09111e-05 4.30691e-06 9.875e-05 0.000101112 4.30691e-06 -1.74807e-05 0.000270516 0.000224287 0.000101112 8.58434e-05 0.000224287 0.000180664 8.58434e-05 6.20275e-05 0.000101112 8.58434e-05 -1.74807e-05 -2.86226e-05 8.58434e-05 6.20275e-05 -2.86226e-05 -4.34242e-05 5.09111e-05 4.30691e-06 -1.36015e-05 -6.22615e-05 4.30691e-06 -1.74807e-05 -6.22615e-05 -9.40379e-05 -1.36015e-05 -6.22615e-05 -6.36029e-05 -0.000113068 -6.22615e-05 -9.40379e-05 -0.000113068 -0.000150226 -1.74807e-05 -2.86226e-05 -9.40379e-05 -0.000113815 -2.86226e-05 -4.34242e-05 -0.000113815 -0.000128876 -9.40379e-05 -0.000113815 -0.000150226 -0.000176293 -0.000113815 -0.000128876 -0.000176293 -0.000195135 0.000180664 0.000138742 6.20275e-05 3.42639e-05 0.000138742 9.81568e-05 3.42639e-05 4.96388e-06 6.20275e-05 3.42639e-05 -4.34242e-05 -6.17043e-05 3.42639e-05 4.96388e-06 -6.17043e-05 -8.20455e-05 9.81568e-05 5.86915e-05 4.96388e-06 -2.45434e-05 5.86915e-05 2.0534e-05 -2.45434e-05 -5.33464e-05 4.96388e-06 -2.45434e-05 -8.20455e-05 -0.000103078 -2.45434e-05 -5.33464e-05 -0.000103078 -0.000123755 -4.34242e-05 -6.17043e-05 -0.000128876 -0.000143609 -6.17043e-05 -8.20455e-05 -0.000143609 -0.000158661 -0.000128876 -0.000143609 -0.000195135 -0.000210096 -0.000143609 -0.000158661 -0.000210096 -0.000223006 -8.20455e-05 -0.000103078 -0.000158661 -0.000173666 -0.000103078 -0.000123755 -0.000173666 -0.000188031 -0.000158661 -0.000173666 -0.000223006 -0.000234426 -0.000173666 -0.000188031 -0.000234426 -0.000244403 -6.36029e-05 -0.000113068 -0.000103494 -0.000153182 -0.000113068 -0.000150226 -0.000153182 -0.000193166 -0.000103494 -0.000153182 -0.000135497 -0.000185043 -0.000153182 -0.000193166 -0.000185043 -0.000226491 -0.000150226 -0.000176293 -0.000193166 -0.00022344 -0.000176293 -0.000195135 -0.00022344 -0.000245796 -0.000193166 -0.00022344 -0.000226491 -0.000259357 -0.00022344 -0.000245796 -0.000259357 -0.000284378 -0.000135497 -0.000185043 -0.000161032 -0.000210169 -0.000185043 -0.000226491 -0.000210169 -0.000252254 -0.000161032 -0.000210169 -0.000181117 -0.000229662 -0.000210169 -0.000252254 -0.000229662 -0.000271868 -0.000226491 -0.000259357 -0.000252254 -0.000286627 -0.000259357 -0.000284378 -0.000286627 -0.000313461 -0.000252254 -0.000286627 -0.000271868 -0.000307017 -0.000286627 -0.000313461 -0.000307017 -0.000334987 -0.000195135 -0.000210096 -0.000245796 -0.000262457 -0.000210096 -0.000223006 -0.000262457 -0.000275124 -0.000245796 -0.000262457 -0.000284378 -0.000302868 -0.000262457 -0.000275124 -0.000302868 -0.000316146 -0.000223006 -0.000234426 -0.000275124 -0.000284816 -0.000234426 -0.000244403 -0.000284816 -0.000292055 -0.000275124 -0.000284816 -0.000316146 -0.000325263 -0.000284816 -0.000292055 -0.000325263 -0.000330981 -0.000284378 -0.000302868 -0.000313461 -0.000333474 -0.000302868 -0.000316146 -0.000333474 -0.000347596 -0.000313461 -0.000333474 -0.000334987 -0.000356121 -0.000333474 -0.000347596 -0.000356121 -0.000371043 -0.000316146 -0.000325263 -0.000347596 -0.000356749 -0.000325263 -0.000330981 -0.000356749 -0.000361745 -0.000347596 -0.000356749 -0.000371043 -0.000380501 -0.000356749 -0.000361745 -0.000380501 -0.000385253 2.0534e-05 -1.5776e-05 -5.33464e-05 -8.06704e-05 -1.5776e-05 -4.9412e-05 -8.06704e-05 -0.000105775 -5.33464e-05 -8.06704e-05 -0.000123755 -0.000143276 -8.06704e-05 -0.000105775 -0.000143276 -0.000161004 -4.9412e-05 -7.93758e-05 -0.000105775 -0.00012794 -7.93758e-05 -0.000104643 -0.00012794 -0.000146493 -0.000105775 -0.00012794 -0.000161004 -0.000176407 -0.00012794 -0.000146493 -0.000176407 -0.000189023 -0.000123755 -0.000143276 -0.000188031 -0.000201226 -0.000143276 -0.000161004 -0.000201226 -0.000212825 -0.000188031 -0.000201226 -0.000244403 -0.000252826 -0.000201226 -0.000212825 -0.000252826 -0.000259577 -0.000161004 -0.000176407 -0.000212825 -0.000222497 -0.000176407 -0.000189023 -0.000222497 -0.000229958 -0.000212825 -0.000222497 -0.000259577 -0.000264558 -0.000222497 -0.000229958 -0.000264558 -0.00026767 -0.000104643 -0.00012433 -0.000146493 -0.00016087 -0.00012433 -0.000137896 -0.00016087 -0.000170678 -0.000146493 -0.00016087 -0.000189023 -0.000198448 -0.00016087 -0.000170678 -0.000198448 -0.000204328 -0.000137896 -0.000145351 -0.000170678 -0.000175742 -0.000145351 -0.000147451 -0.000175742 -0.00017639 -0.000170678 -0.000175742 -0.000204328 -0.000206414 -0.000175742 -0.00017639 -0.000206414 -0.00020469 -0.000189023 -0.000198448 -0.000229958 -0.00023493 -0.000198448 -0.000204328 -0.00023493 -0.000237124 -0.000229958 -0.00023493 -0.00026767 -0.000268775 -0.00023493 -0.000237124 -0.000268775 -0.000267659 -0.000204328 -0.000206414 -0.000237124 -0.000236245 -0.000206414 -0.00020469 -0.000236245 -0.000232054 -0.000237124 -0.000236245 -0.000267659 -0.000264016 -0.000236245 -0.000232054 -0.000264016 -0.000257418 -0.000244403 -0.000252826 -0.000292055 -0.00029713 -0.000252826 -0.000259577 -0.00029713 -0.000300233 -0.000292055 -0.00029713 -0.000330981 -0.00033386 -0.00029713 -0.000300233 -0.00033386 -0.000334345 -0.000259577 -0.000264558 -0.000300233 -0.00030151 -0.000264558 -0.00026767 -0.00030151 -0.000301056 -0.000300233 -0.00030151 -0.000334345 -0.000332791 -0.00030151 -0.000301056 -0.000332791 -0.000329471 -0.000330981 -0.00033386 -0.000361745 -0.00036328 -0.00033386 -0.000334345 -0.00036328 -0.000361959 -0.000361745 -0.00036328 -0.000385253 -0.000386032 -0.00036328 -0.000361959 -0.000386032 -0.000383519 -0.000334345 -0.000332791 -0.000361959 -0.0003583 -0.000332791 -0.000329471 -0.0003583 -0.000352723 -0.000361959 -0.0003583 -0.000383519 -0.000378332 -0.0003583 -0.000352723 -0.000378332 -0.000371002 -0.00026767 -0.000268775 -0.000301056 -0.000298873 -0.000268775 -0.000267659 -0.000298873 -0.000294844 -0.000301056 -0.000298873 -0.000329471 -0.000324537 -0.000298873 -0.000294844 -0.000324537 -0.00031798 -0.000267659 -0.000264016 -0.000294844 -0.000288684 -0.000264016 -0.000257418 -0.000288684 -0.00027986 -0.000294844 -0.000288684 -0.00031798 -0.000309569 -0.000288684 -0.00027986 -0.000309569 -0.000298769 -0.000329471 -0.000324537 -0.000352723 -0.000345514 -0.000324537 -0.00031798 -0.000345514 -0.000336781 -0.000352723 -0.000345514 -0.000371002 -0.000361929 -0.000345514 -0.000336781 -0.000361929 -0.000351342 -0.00031798 -0.000309569 -0.000336781 -0.00032639 -0.000309569 -0.000298769 -0.00032639 -0.000313897 -0.000336781 -0.00032639 -0.000351342 -0.000339239 -0.00032639 -0.000313897 -0.000339239 -0.000325333 -0.000181117 -0.000229662 -0.000196583 -0.000244426 -0.000229662 -0.000271868 -0.000244426 -0.000286428 -0.000196583 -0.000244426 -0.000208164 -0.00025526 -0.000244426 -0.000286428 -0.00025526 -0.00029687 -0.000271868 -0.000307017 -0.000286428 -0.000321872 -0.000307017 -0.000334987 -0.000321872 -0.000350485 -0.000286428 -0.000321872 -0.00029687 -0.000332309 -0.000321872 -0.000350485 -0.000332309 -0.00036123 -0.000208164 -0.00025526 -0.000216536 -0.000262896 -0.00025526 -0.00029687 -0.000262896 -0.000304032 -0.000216536 -0.000262896 -0.000222329 -0.000268017 -0.000262896 -0.000304032 -0.000268017 -0.000308677 -0.00029687 -0.000332309 -0.000304032 -0.000339298 -0.000332309 -0.00036123 -0.000339298 -0.000368321 -0.000304032 -0.000339298 -0.000308677 -0.000343703 -0.000339298 -0.000368321 -0.000343703 -0.000372715 -0.000334987 -0.000356121 -0.000350485 -0.000372381 -0.000356121 -0.000371043 -0.000372381 -0.000387963 -0.000350485 -0.000372381 -0.00036123 -0.000383613 -0.000372381 -0.000387963 -0.000383613 -0.0003