# vtk DataFile Version 3.0
#This file was generated by the deal.II library on 2022/11/17 at 0:32:47
ASCII
DATASET UNSTRUCTURED_GRID

POINTS 9904 double
0.4375 0.75 0
0.46875 0.75 0
0.4375 0.78125 0
0.46875 0.78125 0
0.46875 0.75 0
0.5 0.75 0
0.46875 0.78125 0
0.5 0.78125 0
0.4375 0.78125 0
0.46875 0.78125 0
0.4375 0.8125 0
0.46875 0.8125 0
0.46875 0.78125 0
0.5 0.78125 0
0.46875 0.8125 0
0.5 0.8125 0
0.4375 0.8125 0
0.46875 0.8125 0
0.4375 0.84375 0
0.46875 0.84375 0
0.46875 0.8125 0
0.5 0.8125 0
0.46875 0.84375 0
0.5 0.84375 0
0.4375 0.84375 0
0.46875 0.84375 0
0.4375 0.875 0
0.46875 0.875 0
0.46875 0.84375 0
0.5 0.84375 0
0.46875 0.875 0
0.5 0.875 0
0.375 0.875 0
0.40625 0.875 0
0.375 0.90625 0
0.40625 0.90625 0
0.40625 0.875 0
0.4375 0.875 0
0.40625 0.90625 0
0.4375 0.90625 0
0.375 0.90625 0
0.40625 0.90625 0
0.375 0.9375 0
0.40625 0.9375 0
0.40625 0.90625 0
0.4375 0.90625 0
0.40625 0.9375 0
0.4375 0.9375 0
0.4375 0.875 0
0.46875 0.875 0
0.4375 0.90625 0
0.46875 0.90625 0
0.46875 0.875 0
0.5 0.875 0
0.46875 0.90625 0
0.5 0.90625 0
0.4375 0.90625 0
0.46875 0.90625 0
0.4375 0.9375 0
0.46875 0.9375 0
0.46875 0.90625 0
0.5 0.90625 0
0.46875 0.9375 0
0.5 0.9375 0
0.5625 0.5625 0
0.59375 0.5625 0
0.5625 0.59375 0
0.59375 0.59375 0
0.59375 0.5625 0
0.625 0.5625 0
0.59375 0.59375 0
0.625 0.59375 0
0.5625 0.59375 0
0.59375 0.59375 0
0.5625 0.625 0
0.59375 0.625 0
0.59375 0.59375 0
0.625 0.59375 0
0.59375 0.625 0
0.625 0.625 0
0.625 0.5 0
0.65625 0.5 0
0.625 0.53125 0
0.65625 0.53125 0
0.65625 0.5 0
0.6875 0.5 0
0.65625 0.53125 0
0.6875 0.53125 0
0.625 0.53125 0
0.65625 0.53125 0
0.625 0.5625 0
0.65625 0.5625 0
0.65625 0.53125 0
0.6875 0.53125 0
0.65625 0.5625 0
0.6875 0.5625 0
0.6875 0.5 0
0.71875 0.5 0
0.6875 0.53125 0
0.71875 0.53125 0
0.71875 0.5 0
0.75 0.5 0
0.71875 0.53125 0
0.75 0.53125 0
0.6875 0.53125 0
0.71875 0.53125 0
0.6875 0.5625 0
0.71875 0.5625 0
0.71875 0.53125 0
0.75 0.53125 0
0.71875 0.5625 0
0.75 0.5625 0
0.625 0.5625 0
0.65625 0.5625 0
0.625 0.59375 0
0.65625 0.59375 0
0.65625 0.5625 0
0.6875 0.5625 0
0.65625 0.59375 0
0.6875 0.59375 0
0.625 0.59375 0
0.65625 0.59375 0
0.625 0.625 0
0.65625 0.625 0
0.65625 0.59375 0
0.6875 0.59375 0
0.65625 0.625 0
0.6875 0.625 0
0.6875 0.5625 0
0.71875 0.5625 0
0.6875 0.59375 0
0.71875 0.59375 0
0.71875 0.5625 0
0.75 0.5625 0
0.71875 0.59375 0
0.75 0.59375 0
0.6875 0.59375 0
0.71875 0.59375 0
0.6875 0.625 0
0.71875 0.625 0
0.71875 0.59375 0
0.75 0.59375 0
0.71875 0.625 0
0.75 0.625 0
0.5625 0.625 0
0.59375 0.625 0
0.5625 0.65625 0
0.59375 0.65625 0
0.59375 0.625 0
0.625 0.625 0
0.59375 0.65625 0
0.625 0.65625 0
0.5625 0.65625 0
0.59375 0.65625 0
0.5625 0.6875 0
0.59375 0.6875 0
0.59375 0.65625 0
0.625 0.65625 0
0.59375 0.6875 0
0.625 0.6875 0
0.5 0.6875 0
0.53125 0.6875 0
0.5 0.71875 0
0.53125 0.71875 0
0.53125 0.6875 0
0.5625 0.6875 0
0.53125 0.71875 0
0.5625 0.71875 0
0.5 0.71875 0
0.53125 0.71875 0
0.5 0.75 0
0.53125 0.75 0
0.53125 0.71875 0
0.5625 0.71875 0
0.53125 0.75 0
0.5625 0.75 0
0.5625 0.6875 0
0.59375 0.6875 0
0.5625 0.71875 0
0.59375 0.71875 0
0.59375 0.6875 0
0.625 0.6875 0
0.59375 0.71875 0
0.625 0.71875 0
0.5625 0.71875 0
0.59375 0.71875 0
0.5625 0.75 0
0.59375 0.75 0
0.59375 0.71875 0
0.625 0.71875 0
0.59375 0.75 0
0.625 0.75 0
0.625 0.625 0
0.65625 0.625 0
0.625 0.65625 0
0.65625 0.65625 0
0.65625 0.625 0
0.6875 0.625 0
0.65625 0.65625 0
0.6875 0.65625 0
0.625 0.65625 0
0.65625 0.65625 0
0.625 0.6875 0
0.65625 0.6875 0
0.65625 0.65625 0
0.6875 0.65625 0
0.65625 0.6875 0
0.6875 0.6875 0
0.6875 0.625 0
0.71875 0.625 0
0.6875 0.65625 0
0.71875 0.65625 0
0.71875 0.625 0
0.75 0.625 0
0.71875 0.65625 0
0.75 0.65625 0
0.6875 0.65625 0
0.71875 0.65625 0
0.6875 0.6875 0
0.71875 0.6875 0
0.71875 0.65625 0
0.75 0.65625 0
0.71875 0.6875 0
0.75 0.6875 0
0.625 0.6875 0
0.65625 0.6875 0
0.625 0.71875 0
0.65625 0.71875 0
0.65625 0.6875 0
0.6875 0.6875 0
0.65625 0.71875 0
0.6875 0.71875 0
0.625 0.71875 0
0.65625 0.71875 0
0.625 0.75 0
0.65625 0.75 0
0.65625 0.71875 0
0.6875 0.71875 0
0.65625 0.75 0
0.6875 0.75 0
0.6875 0.6875 0
0.71875 0.6875 0
0.6875 0.71875 0
0.71875 0.71875 0
0.71875 0.6875 0
0.75 0.6875 0
0.71875 0.71875 0
0.75 0.71875 0
0.6875 0.71875 0
0.71875 0.71875 0
0.6875 0.75 0
0.71875 0.75 0
0.71875 0.71875 0
0.75 0.71875 0
0.71875 0.75 0
0.75 0.75 0
0.75 0.5 0
0.78125 0.5 0
0.75 0.53125 0
0.78125 0.53125 0
0.78125 0.5 0
0.8125 0.5 0
0.78125 0.53125 0
0.8125 0.53125 0
0.75 0.53125 0
0.78125 0.53125 0
0.75 0.5625 0
0.78125 0.5625 0
0.78125 0.53125 0
0.8125 0.53125 0
0.78125 0.5625 0
0.8125 0.5625 0
0.8125 0.5 0
0.84375 0.5 0
0.8125 0.53125 0
0.84375 0.53125 0
0.84375 0.5 0
0.875 0.5 0
0.84375 0.53125 0
0.875 0.53125 0
0.8125 0.53125 0
0.84375 0.53125 0
0.8125 0.5625 0
0.84375 0.5625 0
0.84375 0.53125 0
0.875 0.53125 0
0.84375 0.5625 0
0.875 0.5625 0
0.75 0.5625 0
0.78125 0.5625 0
0.75 0.59375 0
0.78125 0.59375 0
0.78125 0.5625 0
0.8125 0.5625 0
0.78125 0.59375 0
0.8125 0.59375 0
0.75 0.59375 0
0.78125 0.59375 0
0.75 0.625 0
0.78125 0.625 0
0.78125 0.59375 0
0.8125 0.59375 0
0.78125 0.625 0
0.8125 0.625 0
0.8125 0.5625 0
0.84375 0.5625 0
0.8125 0.59375 0
0.84375 0.59375 0
0.84375 0.5625 0
0.875 0.5625 0
0.84375 0.59375 0
0.875 0.59375 0
0.8125 0.59375 0
0.84375 0.59375 0
0.8125 0.625 0
0.84375 0.625 0
0.84375 0.59375 0
0.875 0.59375 0
0.84375 0.625 0
0.875 0.625 0
0.875 0.5 0
0.90625 0.5 0
0.875 0.53125 0
0.90625 0.53125 0
0.90625 0.5 0
0.9375 0.5 0
0.90625 0.53125 0
0.9375 0.53125 0
0.875 0.53125 0
0.90625 0.53125 0
0.875 0.5625 0
0.90625 0.5625 0
0.90625 0.53125 0
0.9375 0.53125 0
0.90625 0.5625 0
0.9375 0.5625 0
0.9375 0.5 0
0.96875 0.5 0
0.9375 0.53125 0
0.96875 0.53125 0
0.96875 0.5 0
1 0.5 0
0.96875 0.53125 0
1 0.53125 0
0.9375 0.53125 0
0.96875 0.53125 0
0.9375 0.5625 0
0.96875 0.5625 0
0.96875 0.53125 0
1 0.53125 0
0.96875 0.5625 0
1 0.5625 0
0.875 0.5625 0
0.90625 0.5625 0
0.875 0.59375 0
0.90625 0.59375 0
0.90625 0.5625 0
0.9375 0.5625 0
0.90625 0.59375 0
0.9375 0.59375 0
0.875 0.59375 0
0.90625 0.59375 0
0.875 0.625 0
0.90625 0.625 0
0.90625 0.59375 0
0.9375 0.59375 0
0.90625 0.625 0
0.9375 0.625 0
0.9375 0.5625 0
0.96875 0.5625 0
0.9375 0.59375 0
0.96875 0.59375 0
0.96875 0.5625 0
1 0.5625 0
0.96875 0.59375 0
1 0.59375 0
0.9375 0.59375 0
0.96875 0.59375 0
0.9375 0.625 0
0.96875 0.625 0
0.96875 0.59375 0
1 0.59375 0
0.96875 0.625 0
1 0.625 0
0.75 0.625 0
0.78125 0.625 0
0.75 0.65625 0
0.78125 0.65625 0
0.78125 0.625 0
0.8125 0.625 0
0.78125 0.65625 0
0.8125 0.65625 0
0.75 0.65625 0
0.78125 0.65625 0
0.75 0.6875 0
0.78125 0.6875 0
0.78125 0.65625 0
0.8125 0.65625 0
0.78125 0.6875 0
0.8125 0.6875 0
0.8125 0.625 0
0.84375 0.625 0
0.8125 0.65625 0
0.84375 0.65625 0
0.84375 0.625 0
0.875 0.625 0
0.84375 0.65625 0
0.875 0.65625 0
0.8125 0.65625 0
0.84375 0.65625 0
0.8125 0.6875 0
0.84375 0.6875 0
0.84375 0.65625 0
0.875 0.65625 0
0.84375 0.6875 0
0.875 0.6875 0
0.75 0.6875 0
0.78125 0.6875 0
0.75 0.71875 0
0.78125 0.71875 0
0.78125 0.6875 0
0.8125 0.6875 0
0.78125 0.71875 0
0.8125 0.71875 0
0.75 0.71875 0
0.78125 0.71875 0
0.75 0.75 0
0.78125 0.75 0
0.78125 0.71875 0
0.8125 0.71875 0
0.78125 0.75 0
0.8125 0.75 0
0.8125 0.6875 0
0.84375 0.6875 0
0.8125 0.71875 0
0.84375 0.71875 0
0.84375 0.6875 0
0.875 0.6875 0
0.84375 0.71875 0
0.875 0.71875 0
0.8125 0.71875 0
0.84375 0.71875 0
0.8125 0.75 0
0.84375 0.75 0
0.84375 0.71875 0
0.875 0.71875 0
0.84375 0.75 0
0.875 0.75 0
0.875 0.625 0
0.90625 0.625 0
0.875 0.65625 0
0.90625 0.65625 0
0.90625 0.625 0
0.9375 0.625 0
0.90625 0.65625 0
0.9375 0.65625 0
0.875 0.65625 0
0.90625 0.65625 0
0.875 0.6875 0
0.90625 0.6875 0
0.90625 0.65625 0
0.9375 0.65625 0
0.90625 0.6875 0
0.9375 0.6875 0
0.9375 0.625 0
0.96875 0.625 0
0.9375 0.65625 0
0.96875 0.65625 0
0.96875 0.625 0
1 0.625 0
0.96875 0.65625 0
1 0.65625 0
0.9375 0.65625 0
0.96875 0.65625 0
0.9375 0.6875 0
0.96875 0.6875 0
0.96875 0.65625 0
1 0.65625 0
0.96875 0.6875 0
1 0.6875 0
0.875 0.6875 0
0.90625 0.6875 0
0.875 0.71875 0
0.90625 0.71875 0
0.90625 0.6875 0
0.9375 0.6875 0
0.90625 0.71875 0
0.9375 0.71875 0
0.875 0.71875 0
0.90625 0.71875 0
0.875 0.75 0
0.90625 0.75 0
0.90625 0.71875 0
0.9375 0.71875 0
0.90625 0.75 0
0.9375 0.75 0
0.9375 0.6875 0
0.96875 0.6875 0
0.9375 0.71875 0
0.96875 0.71875 0
0.96875 0.6875 0
1 0.6875 0
0.96875 0.71875 0
1 0.71875 0
0.9375 0.71875 0
0.96875 0.71875 0
0.9375 0.75 0
0.96875 0.75 0
0.96875 0.71875 0
1 0.71875 0
0.96875 0.75 0
1 0.75 0
0.5 0.75 0
0.53125 0.75 0
0.5 0.78125 0
0.53125 0.78125 0
0.53125 0.75 0
0.5625 0.75 0
0.53125 0.78125 0
0.5625 0.78125 0
0.5 0.78125 0
0.53125 0.78125 0
0.5 0.8125 0
0.53125 0.8125 0
0.53125 0.78125 0
0.5625 0.78125 0
0.53125 0.8125 0
0.5625 0.8125 0
0.5625 0.75 0
0.59375 0.75 0
0.5625 0.78125 0
0.59375 0.78125 0
0.59375 0.75 0
0.625 0.75 0
0.59375 0.78125 0
0.625 0.78125 0
0.5625 0.78125 0
0.59375 0.78125 0
0.5625 0.8125 0
0.59375 0.8125 0
0.59375 0.78125 0
0.625 0.78125 0
0.59375 0.8125 0
0.625 0.8125 0
0.5 0.8125 0
0.53125 0.8125 0
0.5 0.84375 0
0.53125 0.84375 0
0.53125 0.8125 0
0.5625 0.8125 0
0.53125 0.84375 0
0.5625 0.84375 0
0.5 0.84375 0
0.53125 0.84375 0
0.5 0.875 0
0.53125 0.875 0
0.53125 0.84375 0
0.5625 0.84375 0
0.53125 0.875 0
0.5625 0.875 0
0.5625 0.8125 0
0.59375 0.8125 0
0.5625 0.84375 0
0.59375 0.84375 0
0.59375 0.8125 0
0.625 0.8125 0
0.59375 0.84375 0
0.625 0.84375 0
0.5625 0.84375 0
0.59375 0.84375 0
0.5625 0.875 0
0.59375 0.875 0
0.59375 0.84375 0
0.625 0.84375 0
0.59375 0.875 0
0.625 0.875 0
0.625 0.75 0
0.65625 0.75 0
0.625 0.78125 0
0.65625 0.78125 0
0.65625 0.75 0
0.6875 0.75 0
0.65625 0.78125 0
0.6875 0.78125 0
0.625 0.78125 0
0.65625 0.78125 0
0.625 0.8125 0
0.65625 0.8125 0
0.65625 0.78125 0
0.6875 0.78125 0
0.65625 0.8125 0
0.6875 0.8125 0
0.6875 0.75 0
0.71875 0.75 0
0.6875 0.78125 0
0.71875 0.78125 0
0.71875 0.75 0
0.75 0.75 0
0.71875 0.78125 0
0.75 0.78125 0
0.6875 0.78125 0
0.71875 0.78125 0
0.6875 0.8125 0
0.71875 0.8125 0
0.71875 0.78125 0
0.75 0.78125 0
0.71875 0.8125 0
0.75 0.8125 0
0.625 0.8125 0
0.65625 0.8125 0
0.625 0.84375 0
[...]
POINT_DATA 9904
SCALARS x_dis double 1
LOOKUP_TABLE default
-0.00015392 -0.000242634 -0.000199184 -0.000287792 -0.000242634 -0.000322715 -0.000287792 -0.000368636 -0.000199184 -0.000287792 -0.000236973 -0.000325566 -0.000287792 -0.000368636 -0.000325566 -0.000407133 -0.000236973 -0.000325566 -0.000268041 -0.000356597 -0.000325566 -0.000407133 -0.000356597 -0.000438846 -0.000268041 -0.000356597 -0.000292838 -0.000381532 -0.000356597 -0.000438846 -0.000381532 -0.000464337 -0.000100807 -0.000198748 -0.000119846 -0.000217701 -0.000198748 -0.000292838 -0.000217701 -0.000312094 -0.000119846 -0.000217701 -0.000132757 -0.000230622 -0.000217701 -0.000312094 -0.000230622 -0.000326523 -0.000292838 -0.000381532 -0.000312094 -0.000400902 -0.000381532 -0.000464337 -0.000400902 -0.00048437 -0.000312094 -0.000400902 -0.000326523 -0.00041668 -0.000400902 -0.00048437 -0.00041668 -0.000499109 0.000153912 0.000139248 -8.43852e-06 -2.78045e-05 0.000139248 0.000118782 -2.78045e-05 -4.30034e-05 -8.43852e-06 -2.78045e-05 -0.000133855 -0.000160686 -2.78045e-05 -4.30034e-05 -0.000160686 -0.000179157 0.000498417 0.000422464 0.000305372 0.000258576 0.000422464 0.000355792 0.000258576 0.000213567 0.000305372 0.000258576 0.000118782 9.3518e-05 0.000258576 0.000213567 9.3518e-05 6.58025e-05 0.000355792 0.000298122 0.000213567 0.000171985 0.000298122 0.000249064 0.000171985 0.000134862 0.000213567 0.000171985 6.58025e-05 3.79543e-05 0.000171985 0.000134862 3.79543e-05 1.1577e-05 0.000118782 9.3518e-05 -4.30034e-05 -5.91258e-05 9.3518e-05 6.58025e-05 -5.91258e-05 -7.67765e-05 -4.30034e-05 -5.91258e-05 -0.000179157 -0.000194077 -5.91258e-05 -7.67765e-05 -0.000194077 -0.000207994 6.58025e-05 3.79543e-05 -7.67765e-05 -9.52522e-05 3.79543e-05 1.1577e-05 -9.52522e-05 -0.000113536 -7.67765e-05 -9.52522e-05 -0.000207994 -0.000221668 -9.52522e-05 -0.000113536 -0.000221668 -0.000235011 -0.000133855 -0.000160686 -0.000235733 -0.000269415 -0.000160686 -0.000179157 -0.000269415 -0.000293341 -0.000235733 -0.000269415 -0.00032064 -0.000360208 -0.000269415 -0.000293341 -0.000360208 -0.00038979 -0.000203595 -0.000268665 -0.000268208 -0.000335732 -0.000268665 -0.00032064 -0.000335732 -0.000391772 -0.000268208 -0.000335732 -0.000322715 -0.000392595 -0.000335732 -0.000391772 -0.000392595 -0.00045211 -0.00032064 -0.000360208 -0.000391772 -0.000436676 -0.000360208 -0.00038979 -0.000436676 -0.00047167 -0.000391772 -0.000436676 -0.00045211 -0.00050141 -0.000436676 -0.00047167 -0.00050141 -0.000541287 -0.000179157 -0.000194077 -0.000293341 -0.00031112 -0.000194077 -0.000207994 -0.00031112 -0.000325489 -0.000293341 -0.00031112 -0.00038979 -0.000411979 -0.00031112 -0.000325489 -0.000411979 -0.000429094 -0.000207994 -0.000221668 -0.000325489 -0.000337986 -0.000221668 -0.000235011 -0.000337986 -0.000349251 -0.000325489 -0.000337986 -0.000429094 -0.000442826 -0.000337986 -0.000349251 -0.000442826 -0.000454204 -0.00038979 -0.000411979 -0.00047167 -0.000498685 -0.000411979 -0.000429094 -0.000498685 -0.000519586 -0.00047167 -0.000498685 -0.000541287 -0.000573001 -0.000498685 -0.000519586 -0.000573001 -0.000597998 -0.000429094 -0.000442826 -0.000519586 -0.000535938 -0.000442826 -0.000454204 -0.000535938 -0.000548889 -0.000519586 -0.000535938 -0.000597998 -0.000617623 -0.000535938 -0.000548889 -0.000617623 -0.000632984 0.000249064 0.000208296 0.000134862 0.000102792 0.000208296 0.000175528 0.000102792 7.60544e-05 0.000134862 0.000102792 1.1577e-05 -1.22629e-05 0.000102792 7.60544e-05 -1.22629e-05 -3.28949e-05 0.000175528 0.000150413 7.60544e-05 5.46871e-05 0.000150413 0.000132451 5.46871e-05 3.85211e-05 7.60544e-05 5.46871e-05 -3.28949e-05 -4.99416e-05 5.46871e-05 3.85211e-05 -4.99416e-05 -6.32399e-05 1.1577e-05 -1.22629e-05 -0.000113536 -0.000130694 -1.22629e-05 -3.28949e-05 -0.000130694 -0.000146001 -0.000113536 -0.000130694 -0.000235011 -0.000247594 -0.000130694 -0.000146001 -0.000247594 -0.000258916 -3.28949e-05 -4.99416e-05 -0.000146001 -0.000158935 -4.99416e-05 -6.32399e-05 -0.000158935 -0.000169137 -0.000146001 -0.000158935 -0.000258916 -0.000268513 -0.000158935 -0.000169137 -0.000268513 -0.000275993 0.000132451 0.000120885 3.85211e-05 2.71883e-05 0.000120885 0.000114595 2.71883e-05 2.01323e-05 3.85211e-05 2.71883e-05 -6.32399e-05 -7.2789e-05 2.71883e-05 2.01323e-05 -7.2789e-05 -7.8728e-05 0.000114595 0.000112012 2.01323e-05 1.66344e-05 0.000112012 0.000111338 1.66344e-05 1.56178e-05 2.01323e-05 1.66344e-05 -7.8728e-05 -8.14129e-05 1.66344e-05 1.56178e-05 -8.14129e-05 -8.1788e-05 -6.32399e-05 -7.2789e-05 -0.000169137 -0.00017638 -7.2789e-05 -7.8728e-05 -0.00017638 -0.000180586 -0.000169137 -0.00017638 -0.000275993 -0.000281052 -0.00017638 -0.000180586 -0.000281052 -0.000283506 -7.8728e-05 -8.14129e-05 -0.000180586 -0.000181926 -8.14129e-05 -8.1788e-05 -0.000181926 -0.000181063 -0.000180586 -0.000181926 -0.000283506 -0.000283369 -0.000181926 -0.000181063 -0.000283369 -0.000280944 -0.000235011 -0.000247594 -0.000349251 -0.0003594 -0.000247594 -0.000258916 -0.0003594 -0.000368271 -0.000349251 -0.0003594 -0.000454204 -0.00046374 -0.0003594 -0.000368271 -0.00046374 -0.000471599 -0.000258916 -0.000268513 -0.000368271 -0.000375589 -0.000268513 -0.000275993 -0.000375589 -0.000381047 -0.000368271 -0.000375589 -0.000471599 -0.000477725 -0.000375589 -0.000381047 -0.000477725 -0.000481951 -0.000454204 -0.00046374 -0.000548889 -0.000559173 -0.00046374 -0.000471599 -0.000559173 -0.000567184 -0.000548889 -0.000559173 -0.000632984 -0.0006449 -0.000559173 -0.000567184 -0.0006449 -0.000653899 -0.000471599 -0.000477725 -0.000567184 -0.000573066 -0.000477725 -0.000481951 -0.000573066 -0.000576788 -0.000567184 -0.000573066 -0.000653899 -0.00066026 -0.000573066 -0.000576788 -0.00066026 -0.000664064 -0.000275993 -0.000281052 -0.000381047 -0.000384357 -0.000281052 -0.000283506 -0.000384357 -0.000385292 -0.000381047 -0.000384357 -0.000481951 -0.000484052 -0.000384357 -0.000385292 -0.000484052 -0.000483793 -0.000283506 -0.000283369 -0.000385292 -0.000383722 -0.000283369 -0.000280944 -0.000383722 -0.000379608 -0.000385292 -0.000383722 -0.000483793 -0.000480928 -0.000383722 -0.000379608 -0.000480928 -0.000475148 -0.000481951 -0.000484052 -0.000576788 -0.000578205 -0.000484052 -0.000483793 -0.000578205 -0.000577089 -0.000576788 -0.000578205 -0.000664064 -0.000665237 -0.000578205 -0.000577089 -0.000665237 -0.000663568 -0.000483793 -0.000480928 -0.000577089 -0.000573115 -0.000480928 -0.000475148 -0.000573115 -0.000565792 -0.000577089 -0.000573115 -0.000663568 -0.000658689 -0.000573115 -0.000565792 -0.000658689 -0.000650006 -0.000322715 -0.000392595 -0.000368636 -0.000440607 -0.000392595 -0.00045211 -0.000440607 -0.000503103 -0.000368636 -0.000440607 -0.000407133 -0.000480767 -0.000440607 -0.000503103 -0.000480767 -0.000545846 -0.00045211 -0.00050141 -0.000503103 -0.000556188 -0.00050141 -0.000541287 -0.000556188 -0.00060031 -0.000503103 -0.000556188 -0.000545846 -0.00060216 -0.000556188 -0.00060031 -0.00060216 -0.000649927 -0.000407133 -0.000480767 -0.000438846 -0.000513925 -0.000480767 -0.000545846 -0.000513925 -0.000581173 -0.000438846 -0.000513925 -0.000464337 -0.00054074 -0.000513925 -0.000581173 -0.00054074 -0.000609732 -0.000545846 -0.00060216 -0.000581173 -0.000640172 -0.00060216 -0.000649927 -0.000640172 -0.00069097 -0.000581173 -0.000640172 -0.000609732 -0.000670843 -0.000640172 -0.00069097 -0.000670843 -0.000723993 -0.000541287 -0.000573001 -0.00060031 -0.000636327 -0.000573001 -0.000597998 -0.000636327 -0.000665314 -0.00060031 -0.000636327 -0.000649927 -0.000689724 -0.000636327 -0.000665314 -0.000689724 -0.000722358 -0.000597998 -0.000617623 -0.000665314 -0.000688378 -0.000617623 -0.000632984 -0.000688378 -0.000706518 -0.000665314 -0.000688378 -0.000722358 -0.00074872 -0.000688378 -0.000706518 -0.00074872 -0.000769672 -0.000649927 -0.000689724 -0.00069097 -0.000733961 -0.000689724 -0.000722358 -0.000733961 -0.000769769 -0.00069097 -0.000733961 -0.000723993 -0.000769571 -0.000733961 -0.000769769 -0.000769571 -0.000808017 -0.000722358 -0.00074872 -0.000769769 -0.000799098 -0.00074872 -0.000769672 -0.000799098 -0.000822672 -0.000769769 -0.000799098 -0.000808017 -0.000839872 -0.000799098 -0.000822672 -0.000839872 -0.000865731 -0.000464337 -0.00054074 -0.00048437 -0.00056173 -0.00054074 -0.000609732 -0.00056173 -0.000632139 -0.00048437 -0.00056173 -0.000499109 -0.000578539 -0.00056173 -0.000632139 -0.000578539 -0.000647593 -0.000609732 -0.000670843 -0.000632139 -0.000694407 -0.000670843 -0.000723993 -0.000694407 -0.000749306 -0.000632139 -0.000694407 -0.000647593 -0.000710757 -0.000694407 -0.000749306 -0.000710757 -0.000767052 -0.000499109 -0.000578539 -0.000512336 -0.000584269 -0.000578539 -0.000647593 -0.000584269 -0.000654987 -0.000512336 -0.000584269 -0.000490945 -0.000579188 -0.000584269 -0.000654987 -0.000579188 -0.000656364 -0.000647593 -0.000710757 -0.000654987 -0.0007199 -0.000710757 -0.000767052 -0.0007199 -0.000777424 -0.000654987 -0.0007199 -0.000656364 -0.000722654 -0.0007199 -0.000777424 -0.000722654 -0.000780802 -0.000723993 -0.000769571 -0.000749306 -0.000796898 -0.000769571 -0.000808017 -0.000796898 -0.000837434 -0.000749306 -0.000796898 -0.000767052 -0.000816175 -0.000796898 -0.000837434 -0.000816175 -0.000858257 -0.000808017 -0.000839872 -0.000837434 -0.000871313 -0.000839872 -0.000865731 -0.000871313 -0.00089903 -0.000837434 -0.000871313 -0.000858257 -0.000893624 -0.000871313 -0.00089903 -0.000893624 -0.00092271 -0.000767052 -0.000816175 -0.000777424 -0.000827604 -0.000816175 -0.000858257 -0.000827604 -0.000870664 -0.000777424 -0.000827604 -0.000780802 -0.000831381 -0.000827604 -0.000870664 -0.000831381 -0.000874783 -0.000858257 -0.000893624 -0.000870664 -0.000906949 -0.000893624 -0.00092271 -0.000906949 -0.000936874 -0.000870664 -0.000906949 -0.000874783 -0.000911379 -0.000906949 -0.000936874 -0.000911379 -0.000941589 -0.000632984 -0.0006449 -0.000706518 -0.000720543 -0.0006449 -0.000653899 -0.000720543 -0.000731037 -0.000706518 -0.000720543 -0.000769672 -0.000785966 -0.000720543 -0.000731037 -0.000785966 -0.000798186 -0.000653899 -0.00066026 -0.000731037 -0.000738358 -0.00066026 -0.000664064 -0.000738358 -0.000742659 -0.000731037 -0.000738358 -0.000798186 -0.000806721 -0.000738358 -0.000742659 -0.000806721 -0.000811766 -0.000769672 -0.000785966 -0.000822672 -0.000841163 -0.000785966 -0.000798186 -0.000841163 -0.000855122 -0.000822672 -0.000841163 -0.000865731 -0.000886185 -0.000841163 -0.000855122 -0.000886185 -0.000901738 -0.000798186 -0.000806721 -0.000855122 -0.000864941 -0.000806721 -0.000811766 -0.000864941 -0.000870828 -0.000855122 -0.000864941 -0.000901738 -0.000912767 -0.000864941 -0.000870828 -0.000912767 -0.00091948 -0.000664064 -0.000665237 -0.000742659 -0.000743918 -0.000665237 -0.000663568 -0.000743918 -0.000741947 -0.000742659 -0.000743918 -0.000811766 -0.000813331 -0.000743918 -0.000741947 -0.000813331 -0.000811244 -0.000663568 -0.000658689 -0.000741947 -0.00073636 -0.000658689 -0.000650006 -0.00073636 -0.000726529 -0.000741947 -0.00073636 -0.000811244 -0.000805127 -0.00073636 -0.000726529 -0.000805127 -0.000794363 -0.000811766 -0.000813331 -0.000870828 -0.000872815 -0.000813331 -0.000811244 -0.000872815 -0.000870739 -0.000870828 -0.000872815 -0.00091948 -0.000921916 -0.000872815 -0.000870739 -0.000921916 -0.000919923 -0.000811244 -0.000805127 -0.000870739 -0.000864241 -0.000805127 -0.000794363 -0.000864241 -0.000852746 -0.000870739 -0.000864241 -0.000919923 -0.000913164 -0.000864241 -0.000852746 -0.000913164 -0.000901117 -0.000865731 -0.000886185 -0.00089903 -0.000921102 -0.000886185 -0.000901738 -0.000921102 -0.000937993 -0.00089903 -0.000921102 -0.00092271 -0.000945985 -0.000921102 -0.000937993 -0.000945985 -0.000963879 -0.000901738 -0.000912767 -0.000937993 -0.000950055 -0.000912767 -0.00091948 -0.000950055 -0.000957489 -0.000937993 -0.000950055 -0.000963879 -0.000976726 -0.000950055 -0.000957489 -0.000976726 -0.000984715 -0.00092271 -0.000945985 -0.000936874 -0.000960889 -0.000945985 -0.000963879 -0.000960889 -0.000979404 -0.000936874 -0.000960889 -0.000941589 -0.000965853 -0.000960889 -0.000979404 -0.000965853 -0.000984578 -0.000963879 -0.000976726 -0.000979404 -0.00099274 -0.000976726 -0.000984715 -0.00099274 -0.00100108 -0.000979404 -0.00099274 -0.000984578 -0.000998079 -0.00099274 -0.00100108 -0.000998079 -0.00100654 -0.00091948 -0.000921916 -0.000957489 -0.000960335 -0.000921916 -0.000919923 -0.000960335 -0.000958453 -0.000957489 -0.000960335 -0.000984715 -0.000987886 -0.000960335 -0.000958453 -0.000987886 -0.000986105 -0.000919923 -0.000913164 -0.000958453 -0.000951522 -0.000913164 -0.000901117 -0.000951522 -0.000939078 -0.000958453 -0.000951522 -0.000986105 -0.000979071 -0.000951522 -0.000939078 -0.000979071 -0.00096636 -0.000984715 -0.000987886 -0.00100108 -0.00100446 -0.000987886 -0.000986105 -0.00100446 -0.00100274 -0.00100108 -0.00100446 -0.00100654 -0.00100998 -0.00100446 -0.00100274 -0.00100998 -0.0010083 -0.000986105 -0.000979071 -0.00100274 -0.000995655 -0.000979071 -0.00096636 -0.000995655 -0.000982791 -0.00100274 -0.000995655 -0.0010083 -0.00100119 -0.000995655 -0.000982791 -0.00100119 -0.000988279 -0.000216635 -0.000278086 -0.000212207 -0.000273945 -0.000278086 -0.000335568 -0.000273945 -0.000331718 -0.000212207 -0.000273945 -0.000198917 -0.000261512 -0.000273945 -0.000331718 -0.000261512 -0.000320161 -0.000198917 -0.000261512 -0.000176766 -0.000240765 -0.000261512 -0.000320161 -0.000240765 -0.000300861 -0.000176766 -0.000240765 -0.000145672 -0.000211543 -0.000240765 -0.000300861 -0.000211543 -0.000273765 -0.000335568 -0.000388532 -0.000331718 -0.000384964 -0.000388532 -0.00043645 -0.000384964 -0.000433138 -0.000331718 -0.000384964 -0.000320161 -0.000374248 -0.000384964 -0.000433138 -0.000374248 -0.000423192 -0.00043645 -0.000478855 -0.000433138 -0.000475763 -0.000478855 -0.000515382 -0.000475763 -0.000512462 -0.000433138 -0.000475763 -0.000423192 -0.000466474 -0.000475763 -0.000512462 -0.000466474 -0.00050369 -0.000320161 -0.000374248 -0.000300861 -0.000356359 -0.000374248 -0.000423192 -0.000356359 -0.000406574 -0.000300861 -0.000356359 -0.000273765 -0.000331197 -0.000356359 -0.000406574 -0.000331197 -0.00038322 -0.000423192 -0.000466474 -0.000406574 -0.000450952 -0.000466474 -0.00050369 -0.000450952 -0.000489022 -0.000406574 -0.000450952 -0.00038322 -0.000429127 -0.000450952 -0.000489022 -0.000429127 -0.000468377 -0.000273765 -0.000331197 -0.000238886 -0.000298725 -0.000331197 -0.00038322 -0.000298725 -0.000353024 -0.000238886 -0.000298725 -0.000195966 -0.000258759 -0.000298725 -0.000353024 -0.000258759 -0.000315788 -0.00038322 -0.000429127 -0.000353024 -0.000400875 -0.000429127 -0.000468377 -0.000400875 -0.00044161 -0.000353024 -0.000400875 -0.000315788 -0.000365975 -0.000400875 -0.00044161 -0.000365975 -0.000408473 -0.000195966 -0.000258759 -0.000144813 -0.000210936 -0.000258759 -0.000315788 -0.000210936 -0.000271148 -0.000144813 -0.000210936 -8.49106e-05 -0.000154616 -0.000210936 -0.000271148 -0.000154616 -0.000218502 -0.000315788 -0.000365975 -0.000271148 -0.000324055 -0.000365975 -0.000408473 -0.000324055 -0.00036856 -0.000271148 -0.000324055 -0.000218502 -0.00027447 -0.000324055 -0.00036856 -0.00027447 -0.000321283 -0.000218502 -0.00027447 -0.000157262 -0.000216512 -0.00027447 -0.000321283 -0.000216512 -0.000265778 -0.000157262 -0.000216512 -8.57151e-05 -0.000148764 -0.000216512 -0.000265778 -0.000148764 -0.000200563 -0.000515382 -0.000545792 -0.000512462 -0.000542992 -0.000545792 -0.000570061 -0.000542992 -0.000567325 -0.000512462 -0.000542992 -0.00050369 -0.000534575 -0.000542992 -0.000567325 -0.000534575 -0.000559093 -0.000570061 -0.000588398 -0.000567325 -0.000585671 -0.000588398 -0.000601192 -0.000585671 -0.000598429 -0.000567325 -0.000585671 -0.000559093 -0.000577464 -0.000585671 -0.000598429 -0.000577464 -0.000590107 -0.00050369 -0.000534575 -0.000489022 -0.000520487 -0.000534575 -0.000559093 -0.000520487 -0.000545299 -0.000489022 -0.000520487 -0.000468377 -0.000500626 -0.000520487 -0.000545299 -0.000500626 -0.000525813 -0.000559093 -0.000577464 -0.000545299 -0.000563691 -0.000577464 -0.000590107 -0.000563691 -0.000576125 -0.000545299 -0.000563691 -0.000525813 -0.000544196 -0.000563691 -0.000576125 -0.000544196 -0.000556305 -0.000601192 -0.000608995 -0.000598429 -0.000606159 -0.000608995 -0.000612479 -0.000606159 -0.000609549 -0.000598429 -0.000606159 -0.000590107 -0.000597616 -0.000606159 -0.000609549 -0.000597616 -0.00060072 -0.000612479 -0.000612397 -0.000609549 -0.00060936 -0.000612397 -0.0006095 -0.00060936 -0.00060636 -0.000609549 -0.00060936 -0.00060072 -0.000600215 -0.00060936 -0.00060636 -0.000600215 -0.000596907 -0.000590107 -0.000597616 -0.000576125 -0.000583257 -0.000597616 -0.00060072 -0.000583257 -0.00058588 -0.000576125 -0.000583257 -0.000556305 -0.000562887 -0.000583257 -0.00058588 -0.000562887 -0.000564835 -0.00060072 -0.000600215 -0.00058588 -0.000584857 -0.000600215 -0.000596907 -0.000584857 -0.00058105 -0.00058588 -0.000584857 -0.000564835 -0.000563103 -0.000584857 -0.00058105 -0.000563103 -0.000558636 -0.000468377 -0.000500626 -0.00044161 -0.000474818 -0.000500626 -0.000525813 -0.000474818 -0.000500423 -0.00044161 -0.000474818 -0.000408473 -0.000442777 -0.000474818 -0.000500423 -0.000442777 -0.000468801 -0.000525813 -0.000544196 -0.000500423 -0.000518729 -0.000544196 -0.000556305 -0.000518729 -0.000530365 -0.000500423 -0.000518729 -0.000468801 -0.000486913 -0.000518729 -0.000530365 -0.000486913 -0.00049789 -0.000408473 -0.000442777 -0.00036856 -0.000404067 -0.000442777 -0.000468801 -0.000404067 -0.00043045 -0.00036856 -0.000404067 -0.000321283 -0.000358033 -0.000404067 -0.00043045 -0.000358033 -0.000384635 -0.000468801 -0.000486913 -0.00043045 -0.000448194 -0.000486913 -0.00049789 -0.000448194 -0.000458287 -0.00043045 -0.000448194 -0.000384635 -0.000401766 -0.000448194 -0.000458287 -0.000401766 -0.000410717 -0.000556305 -0.000562887 -0.000530365 -0.000536209 -0.000562887 -0.000564835 -0.000536209 -0.000537293 -0.000530365 -0.000536209 -0.00049789 -0.000502796 -0.000536209 -0.000537293 -0.000502796 -0.000502846 -0.000564835 -0.000563103 -0.000537293 -0.000534691 -0.000563103 -0.000558636 -0.000534691 -0.000529449 -0.000537293 -0.000534691 -0.000502846 -0.000499269 -0.000534691 -0.000529449 -0.000499269 -0.000493219 -0.00049789 -0.000502796 -0.000458287 -0.000462052 -0.000502796 -0.000502846 -0.000462052 -0.00046095 -0.000458287 -0.000462052 -0.000410717 -0.000413168 -0.000462052 -0.00046095 -0.000413168 -0.0004109 -0.000502846 -0.000499269 -0.00046095 -0.000456388 -0.000499269 -0.000493219 -0.000456388 -0.000449628 -0.00046095 -0.000456388 -0.0004109 -0.000405512 -0.000456388 -0.000449628 -0.000405512 -0.000398342 -0.0006095 -0.000604545 -0.00060636 -0.000601312 -0.000604545 -0.000598189 -0.000601312 -0.000594879 -0.00060636 -0.000601312 -0.000596907 -0.000591585 -0.000601312 -0.000594879 -0.000591585 -0.000584933 -0.000598189 -0.000590952 -0.000594879 -0.000587588 -0.000590952 -0.000583188 -0.000587588 -0.000579793 -0.000594879 -0.000587588 -0.000584933 -0.000577485 -0.000587588 -0.000579793 -0.000577485 -0.000569604 -0.000596907 -0.000591585 -0.00058105 -0.000575294 -0.000591585 -0.000584933 -0.000575294 -0.000568299 -0.00058105 -0.000575294 -0.000558636 -0.000552321 -0.000575294 -0.000568299 -0.000552321 -0.000544901 -0.000584933 -0.000577485 -0.000568299 -0.000560616 -0.000577485 -0.000569604 -0.000560616 -0.000552613 -0.000568299 -0.000560616 -0.000544901 -0.000536944 -0.000560616 -0.000552613 -0.000536944 -0.000528818 -0.000583188 -0.000575058 -0.000579793 -0.000571656 -0.000575058 -0.000566516 -0.000571656 -0.000563129 -0.000579793 -0.000571656 -0.000569604 -0.000561451 -0.000571656 -0.000563129 -0.000561451 -0.000552971 -0.000566516 -0.000557301 -0.000563129 -0.000553946 -0.000557301 -0.000546956 -0.000553946 -0.000543642 -0.000563129 -0.000553946 -0.000552971 -0.000543889 -0.000553946 -0.000543642 -0.000543889 -0.000533713 -0.000569604 -0.000561451 -0.000552613 -0.000544449 -0.000561451 -0.0005