# vtk DataFile Version 3.0
#This file was generated by the deal.II library on 2022/11/17 at 0:20:13
ASCII
DATASET UNSTRUCTURED_GRID

POINTS 4816 double
0 0.5 0
0.03125 0.5 0
0 0.53125 0
0.03125 0.53125 0
0.03125 0.5 0
0.0625 0.5 0
0.03125 0.53125 0
0.0625 0.53125 0
0 0.53125 0
0.03125 0.53125 0
0 0.5625 0
0.03125 0.5625 0
0.03125 0.53125 0
0.0625 0.53125 0
0.03125 0.5625 0
0.0625 0.5625 0
0.0625 0.5 0
0.09375 0.5 0
0.0625 0.53125 0
0.09375 0.53125 0
0.09375 0.5 0
0.125 0.5 0
0.09375 0.53125 0
0.125 0.53125 0
0.0625 0.53125 0
0.09375 0.53125 0
0.0625 0.5625 0
0.09375 0.5625 0
0.09375 0.53125 0
0.125 0.53125 0
0.09375 0.5625 0
0.125 0.5625 0
0 0.5625 0
0.03125 0.5625 0
0 0.59375 0
0.03125 0.59375 0
0.03125 0.5625 0
0.0625 0.5625 0
0.03125 0.59375 0
0.0625 0.59375 0
0 0.59375 0
0.03125 0.59375 0
0 0.625 0
0.03125 0.625 0
0.03125 0.59375 0
0.0625 0.59375 0
0.03125 0.625 0
0.0625 0.625 0
0.0625 0.5625 0
0.09375 0.5625 0
0.0625 0.59375 0
0.09375 0.59375 0
0.09375 0.5625 0
0.125 0.5625 0
0.09375 0.59375 0
0.125 0.59375 0
0.0625 0.59375 0
0.09375 0.59375 0
0.0625 0.625 0
0.09375 0.625 0
0.09375 0.59375 0
0.125 0.59375 0
0.09375 0.625 0
0.125 0.625 0
0.125 0.5 0
0.15625 0.5 0
0.125 0.53125 0
0.15625 0.53125 0
0.15625 0.5 0
0.1875 0.5 0
0.15625 0.53125 0
0.1875 0.53125 0
0.125 0.53125 0
0.15625 0.53125 0
0.125 0.5625 0
0.15625 0.5625 0
0.15625 0.53125 0
0.1875 0.53125 0
0.15625 0.5625 0
0.1875 0.5625 0
0.1875 0.5 0
0.21875 0.5 0
0.1875 0.53125 0
0.21875 0.53125 0
0.21875 0.5 0
0.25 0.5 0
0.21875 0.53125 0
0.25 0.53125 0
0.1875 0.53125 0
0.21875 0.53125 0
0.1875 0.5625 0
0.21875 0.5625 0
0.21875 0.53125 0
0.25 0.53125 0
0.21875 0.5625 0
0.25 0.5625 0
0.125 0.5625 0
0.15625 0.5625 0
0.125 0.59375 0
0.15625 0.59375 0
0.15625 0.5625 0
0.1875 0.5625 0
0.15625 0.59375 0
0.1875 0.59375 0
0.125 0.59375 0
0.15625 0.59375 0
0.125 0.625 0
0.15625 0.625 0
0.15625 0.59375 0
0.1875 0.59375 0
0.15625 0.625 0
0.1875 0.625 0
0.1875 0.5625 0
0.21875 0.5625 0
0.1875 0.59375 0
0.21875 0.59375 0
0.21875 0.5625 0
0.25 0.5625 0
0.21875 0.59375 0
0.25 0.59375 0
0.1875 0.59375 0
0.21875 0.59375 0
0.1875 0.625 0
0.21875 0.625 0
0.21875 0.59375 0
0.25 0.59375 0
0.21875 0.625 0
0.25 0.625 0
0 0.625 0
0.03125 0.625 0
0 0.65625 0
0.03125 0.65625 0
0.03125 0.625 0
0.0625 0.625 0
0.03125 0.65625 0
0.0625 0.65625 0
0 0.65625 0
0.03125 0.65625 0
0 0.6875 0
0.03125 0.6875 0
0.03125 0.65625 0
0.0625 0.65625 0
0.03125 0.6875 0
0.0625 0.6875 0
0.0625 0.625 0
0.09375 0.625 0
0.0625 0.65625 0
0.09375 0.65625 0
0.09375 0.625 0
0.125 0.625 0
0.09375 0.65625 0
0.125 0.65625 0
0.0625 0.65625 0
0.09375 0.65625 0
0.0625 0.6875 0
0.09375 0.6875 0
0.09375 0.65625 0
0.125 0.65625 0
0.09375 0.6875 0
0.125 0.6875 0
0 0.6875 0
0.03125 0.6875 0
0 0.71875 0
0.03125 0.71875 0
0.03125 0.6875 0
0.0625 0.6875 0
0.03125 0.71875 0
0.0625 0.71875 0
0 0.71875 0
0.03125 0.71875 0
0 0.75 0
0.03125 0.75 0
0.03125 0.71875 0
0.0625 0.71875 0
0.03125 0.75 0
0.0625 0.75 0
0.0625 0.6875 0
0.09375 0.6875 0
0.0625 0.71875 0
0.09375 0.71875 0
0.09375 0.6875 0
0.125 0.6875 0
0.09375 0.71875 0
0.125 0.71875 0
0.0625 0.71875 0
0.09375 0.71875 0
0.0625 0.75 0
0.09375 0.75 0
0.09375 0.71875 0
0.125 0.71875 0
0.09375 0.75 0
0.125 0.75 0
0.125 0.625 0
0.15625 0.625 0
0.125 0.65625 0
0.15625 0.65625 0
0.15625 0.625 0
0.1875 0.625 0
0.15625 0.65625 0
0.1875 0.65625 0
0.125 0.65625 0
0.15625 0.65625 0
0.125 0.6875 0
0.15625 0.6875 0
0.15625 0.65625 0
0.1875 0.65625 0
0.15625 0.6875 0
0.1875 0.6875 0
0.1875 0.625 0
0.21875 0.625 0
0.1875 0.65625 0
0.21875 0.65625 0
0.21875 0.625 0
0.25 0.625 0
0.21875 0.65625 0
0.25 0.65625 0
0.1875 0.65625 0
0.21875 0.65625 0
0.1875 0.6875 0
0.21875 0.6875 0
0.21875 0.65625 0
0.25 0.65625 0
0.21875 0.6875 0
0.25 0.6875 0
0.125 0.6875 0
0.15625 0.6875 0
0.125 0.71875 0
0.15625 0.71875 0
0.15625 0.6875 0
0.1875 0.6875 0
0.15625 0.71875 0
0.1875 0.71875 0
0.125 0.71875 0
0.15625 0.71875 0
0.125 0.75 0
0.15625 0.75 0
0.15625 0.71875 0
0.1875 0.71875 0
0.15625 0.75 0
0.1875 0.75 0
0.1875 0.6875 0
0.21875 0.6875 0
0.1875 0.71875 0
0.21875 0.71875 0
0.21875 0.6875 0
0.25 0.6875 0
0.21875 0.71875 0
0.25 0.71875 0
0.1875 0.71875 0
0.21875 0.71875 0
0.1875 0.75 0
0.21875 0.75 0
0.21875 0.71875 0
0.25 0.71875 0
0.21875 0.75 0
0.25 0.75 0
0.25 0.5 0
0.28125 0.5 0
0.25 0.53125 0
0.28125 0.53125 0
0.28125 0.5 0
0.3125 0.5 0
0.28125 0.53125 0
0.3125 0.53125 0
0.25 0.53125 0
0.28125 0.53125 0
0.25 0.5625 0
0.28125 0.5625 0
0.28125 0.53125 0
0.3125 0.53125 0
0.28125 0.5625 0
0.3125 0.5625 0
0.3125 0.5 0
0.34375 0.5 0
0.3125 0.53125 0
0.34375 0.53125 0
0.34375 0.5 0
0.375 0.5 0
0.34375 0.53125 0
0.375 0.53125 0
0.3125 0.53125 0
0.34375 0.53125 0
0.3125 0.5625 0
0.34375 0.5625 0
0.34375 0.53125 0
0.375 0.53125 0
0.34375 0.5625 0
0.375 0.5625 0
0.25 0.5625 0
0.28125 0.5625 0
0.25 0.59375 0
0.28125 0.59375 0
0.28125 0.5625 0
0.3125 0.5625 0
0.28125 0.59375 0
0.3125 0.59375 0
0.25 0.59375 0
0.28125 0.59375 0
0.25 0.625 0
0.28125 0.625 0
0.28125 0.59375 0
0.3125 0.59375 0
0.28125 0.625 0
0.3125 0.625 0
0.3125 0.5625 0
0.34375 0.5625 0
0.3125 0.59375 0
0.34375 0.59375 0
0.34375 0.5625 0
0.375 0.5625 0
0.34375 0.59375 0
0.375 0.59375 0
0.3125 0.59375 0
0.34375 0.59375 0
0.3125 0.625 0
0.34375 0.625 0
0.34375 0.59375 0
0.375 0.59375 0
0.34375 0.625 0
0.375 0.625 0
0.25 0.625 0
0.28125 0.625 0
0.25 0.65625 0
0.28125 0.65625 0
0.28125 0.625 0
0.3125 0.625 0
0.28125 0.65625 0
0.3125 0.65625 0
0.25 0.65625 0
0.28125 0.65625 0
0.25 0.6875 0
0.28125 0.6875 0
0.28125 0.65625 0
0.3125 0.65625 0
0.28125 0.6875 0
0.3125 0.6875 0
0.3125 0.625 0
0.34375 0.625 0
0.3125 0.65625 0
0.34375 0.65625 0
0.34375 0.625 0
0.375 0.625 0
0.34375 0.65625 0
0.375 0.65625 0
0.3125 0.65625 0
0.34375 0.65625 0
0.3125 0.6875 0
0.34375 0.6875 0
0.34375 0.65625 0
0.375 0.65625 0
0.34375 0.6875 0
0.375 0.6875 0
0.25 0.6875 0
0.28125 0.6875 0
0.25 0.71875 0
0.28125 0.71875 0
0.28125 0.6875 0
0.3125 0.6875 0
0.28125 0.71875 0
0.3125 0.71875 0
0.25 0.71875 0
0.28125 0.71875 0
0.25 0.75 0
0.28125 0.75 0
0.28125 0.71875 0
0.3125 0.71875 0
0.28125 0.75 0
0.3125 0.75 0
0.3125 0.6875 0
0.34375 0.6875 0
0.3125 0.71875 0
0.34375 0.71875 0
0.34375 0.6875 0
0.375 0.6875 0
0.34375 0.71875 0
0.375 0.71875 0
0.3125 0.71875 0
0.34375 0.71875 0
0.3125 0.75 0
0.34375 0.75 0
0.34375 0.71875 0
0.375 0.71875 0
0.34375 0.75 0
0.375 0.75 0
0.375 0.625 0
0.40625 0.625 0
0.375 0.65625 0
0.40625 0.65625 0
0.40625 0.625 0
0.4375 0.625 0
0.40625 0.65625 0
0.4375 0.65625 0
0.375 0.65625 0
0.40625 0.65625 0
0.375 0.6875 0
0.40625 0.6875 0
0.40625 0.65625 0
0.4375 0.65625 0
0.40625 0.6875 0
0.4375 0.6875 0
0.4375 0.625 0
0.46875 0.625 0
0.4375 0.65625 0
0.46875 0.65625 0
0.46875 0.625 0
0.5 0.625 0
0.46875 0.65625 0
0.5 0.65625 0
0.4375 0.65625 0
0.46875 0.65625 0
0.4375 0.6875 0
0.46875 0.6875 0
0.46875 0.65625 0
0.5 0.65625 0
0.46875 0.6875 0
0.5 0.6875 0
0.375 0.6875 0
0.40625 0.6875 0
0.375 0.71875 0
0.40625 0.71875 0
0.40625 0.6875 0
0.4375 0.6875 0
0.40625 0.71875 0
0.4375 0.71875 0
0.375 0.71875 0
0.40625 0.71875 0
0.375 0.75 0
0.40625 0.75 0
0.40625 0.71875 0
0.4375 0.71875 0
0.40625 0.75 0
0.4375 0.75 0
0.4375 0.6875 0
0.46875 0.6875 0
0.4375 0.71875 0
0.46875 0.71875 0
0.46875 0.6875 0
0.5 0.6875 0
0.46875 0.71875 0
0.5 0.71875 0
0.4375 0.71875 0
0.46875 0.71875 0
0.4375 0.75 0
0.46875 0.75 0
0.46875 0.71875 0
0.5 0.71875 0
0.46875 0.75 0
0.5 0.75 0
0 0.75 0
0.03125 0.75 0
0 0.78125 0
0.03125 0.78125 0
0.03125 0.75 0
0.0625 0.75 0
0.03125 0.78125 0
0.0625 0.78125 0
0 0.78125 0
0.03125 0.78125 0
0 0.8125 0
0.03125 0.8125 0
0.03125 0.78125 0
0.0625 0.78125 0
0.03125 0.8125 0
0.0625 0.8125 0
0.0625 0.75 0
0.09375 0.75 0
0.0625 0.78125 0
0.09375 0.78125 0
0.09375 0.75 0
0.125 0.75 0
0.09375 0.78125 0
0.125 0.78125 0
0.0625 0.78125 0
0.09375 0.78125 0
0.0625 0.8125 0
0.09375 0.8125 0
0.09375 0.78125 0
0.125 0.78125 0
0.09375 0.8125 0
0.125 0.8125 0
0 0.8125 0
0.03125 0.8125 0
0 0.84375 0
0.03125 0.84375 0
0.03125 0.8125 0
0.0625 0.8125 0
0.03125 0.84375 0
0.0625 0.84375 0
0 0.84375 0
0.03125 0.84375 0
0 0.875 0
0.03125 0.875 0
0.03125 0.84375 0
0.0625 0.84375 0
0.03125 0.875 0
0.0625 0.875 0
0.0625 0.8125 0
0.09375 0.8125 0
0.0625 0.84375 0
0.09375 0.84375 0
0.09375 0.8125 0
0.125 0.8125 0
0.09375 0.84375 0
0.125 0.84375 0
0.0625 0.84375 0
0.09375 0.84375 0
0.0625 0.875 0
0.09375 0.875 0
0.09375 0.84375 0
0.125 0.84375 0
0.09375 0.875 0
0.125 0.875 0
0.125 0.75 0
0.15625 0.75 0
0.125 0.78125 0
0.15625 0.78125 0
0.15625 0.75 0
0.1875 0.75 0
0.15625 0.78125 0
0.1875 0.78125 0
0.125 0.78125 0
0.15625 0.78125 0
0.125 0.8125 0
0.15625 0.8125 0
0.15625 0.78125 0
0.1875 0.78125 0
0.15625 0.8125 0
0.1875 0.8125 0
0.1875 0.75 0
0.21875 0.75 0
0.1875 0.78125 0
0.21875 0.78125 0
0.21875 0.75 0
0.25 0.75 0
0.21875 0.78125 0
0.25 0.78125 0
0.1875 0.78125 0
0.21875 0.78125 0
0.1875 0.8125 0
0.21875 0.8125 0
0.21875 0.78125 0
0.25 0.78125 0
0.21875 0.8125 0
0.25 0.8125 0
0.125 0.8125 0
0.15625 0.8125 0
0.125 0.84375 0
0.15625 0.84375 0
0.15625 0.8125 0
0.1875 0.8125 0
0.15625 0.84375 0
0.1875 0.84375 0
0.125 0.84375 0
0.15625 0.84375 0
0.125 0.875 0
0.15625 0.875 0
0.15625 0.84375 0
0.1875 0.84375 0
0.15625 0.875 0
0.1875 0.875 0
0.1875 0.8125 0
0.21875 0.8125 0
0.1875 0.84375 0
0.21875 0.84375 0
0.21875 0.8125 0
0.25 0.8125 0
0.21875 0.84375 0
0.25 0.84375 0
0.1875 0.84375 0
0.21875 0.84375 0
0.1875 0.875 0
0.21875 0.875 0
0.21875 0.84375 0
0.25 0.84375 0
0.21875 0.875 0
0.25 0.875 0
0.0625 0.875 0
0.09375 0.875 0
0.0625 0.90625 0
0.09375 0.90625 0
0.09375 0.875 0
0.125 0.875 0
0.09375 0.90625 0
0.125 0.90625 0
0.0625 0.90625 0
0.09375 0.90625 0
0.0625 0.9375 0
0.09375 0.9375 0
0.09375 0.90625 0
0.125 0.90625 0
0.09375 0.9375 0
0.125 0.9375 0
0.125 0.875 0
0.15625 0.875 0
0.125 0.90625 0
0.15625 0.90625 0
0.15625 0.875 0
0.1875 0.875 0
0.15625 0.90625 0
0.1875 0.90625 0
0.125 0.90625 0
0.15625 0.90625 0
0.125 0.9375 0
0.15625 0.9375 0
0.15625 0.90625 0
0.1875 0.90625 0
0.15625 0.9375 0
0.1875 0.9375 0
0.1875 0.875 0
0.21875 0.875 0
0.1875 0.90625 0
[...]
POINT_DATA 4816
SCALARS x_dis double 1
LOOKUP_TABLE default
0.00091118 0.000863659 0.000896707 0.000848597 0.000863659 0.00081485 0.000848597 0.000799297 0.000896707 0.000848597 0.000873925 0.000824753 0.000848597 0.000799297 0.000824753 0.000774559 0.00081485 0.000766169 0.000799297 0.000750215 0.000766169 0.000718656 0.000750215 0.000702384 0.000799297 0.000750215 0.000774559 0.00072464 0.000750215 0.000702384 0.00072464 0.000675935 0.000873925 0.000824753 0.000843435 0.000792775 0.000824753 0.000774559 0.000792775 0.000741335 0.000843435 0.000792775 0.000806246 0.000753747 0.000792775 0.000741335 0.000753747 0.000700784 0.000774559 0.00072464 0.000741335 0.000690215 0.00072464 0.000675935 0.000690215 0.000640204 0.000741335 0.000690215 0.000700784 0.000648209 0.000690215 0.000640204 0.000648209 0.000596628 0.000718656 0.000673119 0.000702384 0.000656597 0.000673119 0.000630239 0.000656597 0.00061351 0.000702384 0.000656597 0.000675935 0.000629148 0.000656597 0.00061351 0.000629148 0.000584818 0.000630239 0.000590642 0.00061351 0.000573694 0.000590642 0.000554959 0.000573694 0.000537686 0.00061351 0.000573694 0.000584818 0.000543351 0.000573694 0.000537686 0.000543351 0.00050503 0.000675935 0.000629148 0.000640204 0.000591864 0.000629148 0.000584818 0.000591864 0.000545573 0.000640204 0.000591864 0.000596628 0.000546441 0.000591864 0.000545573 0.000546441 0.000497867 0.000584818 0.000543351 0.000545573 0.000501531 0.000543351 0.00050503 0.000501531 0.000459747 0.000545573 0.000501531 0.000497867 0.000450932 0.000501531 0.000459747 0.000450932 0.000405445 0.000806246 0.000753747 0.000763694 0.000709101 0.000753747 0.000700784 0.000709101 0.000654429 0.000763694 0.000709101 0.000717351 0.000660509 0.000709101 0.000654429 0.000660509 0.000604035 0.000700784 0.000648209 0.000654429 0.000600265 0.000648209 0.000596628 0.000600265 0.000547018 0.000654429 0.000600265 0.000604035 0.000548253 0.000600265 0.000547018 0.000548253 0.000493392 0.000717351 0.000660509 0.000668918 0.000609773 0.000660509 0.000604035 0.000609773 0.000551488 0.000668918 0.000609773 0.000620135 0.000558728 0.000609773 0.000551488 0.000558728 0.000498693 0.000604035 0.000548253 0.000551488 0.000494148 0.000548253 0.000493392 0.000494148 0.000437824 0.000551488 0.000494148 0.000498693 0.000439914 0.000494148 0.000437824 0.000439914 0.000382334 0.000596628 0.000546441 0.000547018 0.000494941 0.000546441 0.000497867 0.000494941 0.000444122 0.000547018 0.000494941 0.000493392 0.000439575 0.000494941 0.000444122 0.000439575 0.000386803 0.000497867 0.000450932 0.000444122 0.000394476 0.000450932 0.000405445 0.000394476 0.000345726 0.000444122 0.000394476 0.000386803 0.000334943 0.000394476 0.000345726 0.000334943 0.000283721 0.000493392 0.000439575 0.000437824 0.000382538 0.000439575 0.000386803 0.000382538 0.000328239 0.000437824 0.000382538 0.000382334 0.0003259 0.000382538 0.000328239 0.0003259 0.000270529 0.000386803 0.000334943 0.000328239 0.000274788 0.000334943 0.000283721 0.000274788 0.000221966 0.000328239 0.000274788 0.000270529 0.000216101 0.000274788 0.000221966 0.000216101 0.000162463 0.000554959 0.000523879 0.000537686 0.000506005 0.000523879 0.000498211 0.000506005 0.000479161 0.000537686 0.000506005 0.00050503 0.000469983 0.000506005 0.000479161 0.000469983 0.00043809 0.000498211 0.00047899 0.000479161 0.00045761 0.00047899 0.000467713 0.00045761 0.000441619 0.000479161 0.00045761 0.00043809 0.000408788 0.00045761 0.000441619 0.000408788 0.000380511 0.00050503 0.000469983 0.000459747 0.000419971 0.000469983 0.00043809 0.000419971 0.000381584 0.000459747 0.000419971 0.000405445 0.00036095 0.000419971 0.000381584 0.00036095 0.000316653 0.00043809 0.000408788 0.000381584 0.000343385 0.000408788 0.000380511 0.000343385 0.0003034 0.000381584 0.000343385 0.000316653 0.000271355 0.000343385 0.0003034 0.000271355 0.000223585 0.000405445 0.00036095 0.000345726 0.000297386 0.00036095 0.000316653 0.000297386 0.000248764 0.000345726 0.000297386 0.000283721 0.000232736 0.000297386 0.000248764 0.000232736 0.000181516 0.000316653 0.000271355 0.000248764 0.000199045 0.000271355 0.000223585 0.000199045 0.000147443 0.000248764 0.000199045 0.000181516 0.000129621 0.000199045 0.000147443 0.000129621 7.68708e-05 0.000283721 0.000232736 0.000221966 0.0001695 0.000232736 0.000181516 0.0001695 0.000117133 0.000221966 0.0001695 0.000162463 0.000109463 0.0001695 0.000117133 0.000109463 5.70122e-05 0.000181516 0.000129621 0.000117133 6.47379e-05 0.000129621 7.68708e-05 6.47379e-05 1.25008e-05 0.000117133 6.47379e-05 5.70122e-05 5.18234e-06 6.47379e-05 1.25008e-05 5.18234e-06 -4.56737e-05 0.000223585 0.000171903 0.000147443 9.36989e-05 0.000171903 0.00011606 9.36989e-05 3.90283e-05 0.000147443 9.36989e-05 7.68708e-05 2.37265e-05 9.36989e-05 3.90283e-05 2.37265e-05 -2.8267e-05 0.00011606 5.9465e-05 3.90283e-05 -1.31024e-05 5.9465e-05 1.0361e-05 -1.31024e-05 -5.72882e-05 3.90283e-05 -1.31024e-05 -2.8267e-05 -7.63146e-05 -1.31024e-05 -5.72882e-05 -7.63146e-05 -0.000116859 7.68708e-05 2.37265e-05 1.25008e-05 -3.88512e-05 2.37265e-05 -2.8267e-05 -3.88512e-05 -8.78777e-05 1.25008e-05 -3.88512e-05 -4.56737e-05 -9.48037e-05 -3.88512e-05 -8.78777e-05 -9.48037e-05 -0.000141007 -2.8267e-05 -7.63146e-05 -8.78777e-05 -0.000132472 -7.63146e-05 -0.000116859 -0.000132472 -0.000170252 -8.78777e-05 -0.000132472 -0.000141007 -0.000182727 -0.000132472 -0.000170252 -0.000182727 -0.000218326 0.000620135 0.000558728 0.000572705 0.000509156 0.000558728 0.000498693 0.000509156 0.000447486 0.000572705 0.000509156 0.000528229 0.000462728 0.000509156 0.000447486 0.000462728 0.000399568 0.000498693 0.000439914 0.000447486 0.000387422 0.000439914 0.000382334 0.000387422 0.00032881 0.000447486 0.000387422 0.000399568 0.000338384 0.000387422 0.00032881 0.000338384 0.000278952 0.000528229 0.000462728 0.000488154 0.00042092 0.000462728 0.000399568 0.00042092 0.000356441 0.000488154 0.00042092 0.000453389 0.000384899 0.00042092 0.000356441 0.000384899 0.000319287 0.000399568 0.000338384 0.000356441 0.0002943 0.000338384 0.000278952 0.0002943 0.000234244 0.000356441 0.0002943 0.000319287 0.000256439 0.0002943 0.000234244 0.000256439 0.000195933 0.000382334 0.0003259 0.00032881 0.00027154 0.0003259 0.000270529 0.00027154 0.000215513 0.00032881 0.00027154 0.000278952 0.00022112 0.00027154 0.000215513 0.00022112 0.000164773 0.000270529 0.000216101 0.000215513 0.000160629 0.000216101 0.000162463 0.000160629 0.00010679 0.000215513 0.000160629 0.000164773 0.000109823 0.000160629 0.00010679 0.000109823 5.62106e-05 0.000278952 0.00022112 0.000234244 0.000176065 0.00022112 0.000164773 0.000176065 0.000119639 0.000234244 0.000176065 0.000195933 0.000137557 0.000176065 0.000119639 0.000137557 8.12168e-05 0.000164773 0.000109823 0.000119639 6.48847e-05 0.000109823 5.62106e-05 6.48847e-05 1.17508e-05 0.000119639 6.48847e-05 8.12168e-05 2.67932e-05 6.48847e-05 1.17508e-05 2.67932e-05 -2.57472e-05 0.000319287 0.000256439 0.000288924 0.000225778 0.000256439 0.000195933 0.000225778 0.000165 0.000288924 0.000225778 0.000266631 0.000203148 0.000225778 0.000165 0.000203148 0.000142422 0.000195933 0.000137557 0.000165 0.000106581 0.000137557 8.12168e-05 0.000106581 5.03446e-05 0.000165 0.000106581 0.000142422 8.34759e-05 0.000106581 5.03446e-05 8.34759e-05 2.79036e-05 8.12168e-05 2.67932e-05 5.03446e-05 -3.63417e-06 2.67932e-05 -2.57472e-05 -3.63417e-06 -5.56007e-05 5.03446e-05 -3.63417e-06 2.79036e-05 -2.57503e-05 -3.63417e-06 -5.56007e-05 -2.57503e-05 -7.72764e-05 0.000142422 8.34759e-05 0.000127293 7.03432e-05 8.34759e-05 2.79036e-05 7.03432e-05 1.45589e-05 0.000127293 7.03432e-05 0.00012788 6.74343e-05 7.03432e-05 1.45589e-05 6.74343e-05 1.02469e-05 2.79036e-05 -2.57503e-05 1.45589e-05 -3.91087e-05 -2.57503e-05 -7.72764e-05 -3.91087e-05 -9.04066e-05 1.45589e-05 -3.91087e-05 1.02469e-05 -4.35483e-05 -3.91087e-05 -9.04066e-05 -4.35483e-05 -9.48009e-05 0.000162463 0.000109463 0.00010679 5.39344e-05 0.000109463 5.70122e-05 5.39344e-05 2.08163e-06 0.00010679 5.39344e-05 5.62106e-05 3.92476e-06 5.39344e-05 2.08163e-06 3.92476e-06 -4.69598e-05 5.70122e-05 5.18234e-06 2.08163e-06 -4.85976e-05 5.18234e-06 -4.56737e-05 -4.85976e-05 -9.77085e-05 2.08163e-06 -4.85976e-05 -4.69598e-05 -9.62405e-05 -4.85976e-05 -9.77085e-05 -9.62405e-05 -0.000143546 5.62106e-05 3.92476e-06 1.17508e-05 -3.97498e-05 3.92476e-06 -4.69598e-05 -3.97498e-05 -8.95281e-05 1.17508e-05 -3.97498e-05 -2.57472e-05 -7.64135e-05 -3.97498e-05 -8.95281e-05 -7.64135e-05 -0.000125113 -4.69598e-05 -9.62405e-05 -8.95281e-05 -0.000137387 -9.62405e-05 -0.000143546 -0.000137387 -0.000183005 -8.95281e-05 -0.000137387 -0.000125113 -0.000171673 -0.000137387 -0.000183005 -0.000171673 -0.000215827 -4.56737e-05 -9.48037e-05 -9.77085e-05 -0.000144577 -9.48037e-05 -0.000141007 -0.000144577 -0.000188252 -9.77085e-05 -0.000144577 -0.000143546 -0.000188313 -0.000144577 -0.000188252 -0.000188313 -0.000229806 -0.000141007 -0.000182727 -0.000188252 -0.000227591 -0.000182727 -0.000218326 -0.000227591 -0.000261445 -0.000188252 -0.000227591 -0.000229806 -0.000267188 -0.000227591 -0.000261445 -0.000267188 -0.000299644 -0.000143546 -0.000188313 -0.000183005 -0.00022593 -0.000188313 -0.000229806 -0.00022593 -0.000265601 -0.000183005 -0.00022593 -0.000215827 -0.00025722 -0.00022593 -0.000265601 -0.00025722 -0.000295425 -0.000229806 -0.000267188 -0.000265601 -0.000301403 -0.000267188 -0.000299644 -0.000301403 -0.000332752 -0.000265601 -0.000301403 -0.000295425 -0.000329987 -0.000301403 -0.000332752 -0.000329987 -0.000360482 -2.57472e-05 -7.64135e-05 -5.56007e-05 -0.00010551 -7.64135e-05 -0.000125113 -0.00010551 -0.000153276 -5.56007e-05 -0.00010551 -7.72764e-05 -0.000126601 -0.00010551 -0.000153276 -0.000126601 -0.000173657 -0.000125113 -0.000171673 -0.000153276 -0.000198754 -0.000171673 -0.000215827 -0.000198754 -0.000241729 -0.000153276 -0.000198754 -0.000173657 -0.000218329 -0.000198754 -0.000241729 -0.000218329 -0.000260446 -7.72764e-05 -0.000126601 -9.04066e-05 -0.000139377 -0.000126601 -0.000173657 -0.000139377 -0.000185994 -9.04066e-05 -0.000139377 -9.48009e-05 -0.000143655 -0.000139377 -0.000185994 -0.000143655 -0.000190123 -0.000173657 -0.000218329 -0.000185994 -0.000230171 -0.000218329 -0.000260446 -0.000230171 -0.000271766 -0.000185994 -0.000230171 -0.000190123 -0.000234134 -0.000230171 -0.000271766 -0.000234134 -0.000275555 -0.000215827 -0.00025722 -0.000241729 -0.000281923 -0.00025722 -0.000295425 -0.000281923 -0.000319007 -0.000241729 -0.000281923 -0.000260446 -0.000299782 -0.000281923 -0.000319007 -0.000299782 -0.000336079 -0.000295425 -0.000329987 -0.000319007 -0.00035264 -0.000329987 -0.000360482 -0.00035264 -0.000382506 -0.000319007 -0.00035264 -0.000336079 -0.000369067 -0.00035264 -0.000382506 -0.000369067 -0.000398504 -0.000260446 -0.000299782 -0.000271766 -0.000310588 -0.000299782 -0.000336079 -0.000310588 -0.000346418 -0.000271766 -0.000310588 -0.000275555 -0.000314206 -0.000310588 -0.000346418 -0.000314206 -0.000349882 -0.000336079 -0.000369067 -0.000346418 -0.000379029 -0.000369067 -0.000398504 -0.000379029 -0.000408216 -0.000346418 -0.000379029 -0.000349882 -0.000382367 -0.000379029 -0.000408216 -0.000382367 -0.000411473 0.000579616 0.000523496 0.000337803 0.000340063 0.000523496 0.000473704 0.000340063 0.00033047 0.000337803 0.000340063 0.000165353 0.00018296 0.000340063 0.00033047 0.00018296 0.000194122 0.000165353 0.00018296 5.16306e-05 6.23568e-05 0.00018296 0.000194122 6.23568e-05 7.72476e-05 5.16306e-05 6.23568e-05 -3.41499e-05 -3.09916e-05 6.23568e-05 7.72476e-05 -3.09916e-05 -1.96216e-05 0.000473704 0.000431804 0.00033047 0.000316751 0.000431804 0.000397542 0.000316751 0.000302658 0.00033047 0.000316751 0.000194122 0.00019923 0.000316751 0.000302658 0.00019923 0.00020063 0.000397542 0.000370426 0.000302658 0.000290096 0.000370426 0.00034994 0.000290096 0.000279956 0.000302658 0.000290096 0.00020063 0.000200229 0.000290096 0.000279956 0.000200229 0.000199303 0.000194122 0.00019923 7.72476e-05 9.03845e-05 0.00019923 0.00020063 9.03845e-05 0.000100615 7.72476e-05 9.03845e-05 -1.96216e-05 -5.74476e-06 9.03845e-05 0.000100615 -5.74476e-06 7.6245e-06 0.00020063 0.000200229 0.000100615 0.000108328 0.000200229 0.000199303 0.000108328 0.000114223 0.000100615 0.000108328 7.6245e-06 1.93746e-05 0.000108328 0.000114223 1.93746e-05 2.93177e-05 1.0361e-05 -2.18984e-05 -5.72882e-05 -8.83091e-05 -2.18984e-05 -3.41499e-05 -8.83091e-05 -0.00010426 -5.72882e-05 -8.83091e-05 -0.000116859 -0.00014681 -8.83091e-05 -0.00010426 -0.00014681 -0.00016482 -3.41499e-05 -3.09916e-05 -0.00010426 -0.000107017 -3.09916e-05 -1.96216e-05 -0.000107017 -0.000100627 -0.00010426 -0.000107017 -0.00016482 -0.000171724 -0.000107017 -0.000100627 -0.000171724 -0.000169958 -0.000116859 -0.00014681 -0.000170252 -0.000199232 -0.00014681 -0.00016482 -0.000199232 -0.00021848 -0.000170252 -0.000199232 -0.000218326 -0.000246476 -0.000199232 -0.00021848 -0.000246476 -0.000266527 -0.00016482 -0.000171724 -0.00021848 -0.000228395 -0.000171724 -0.000169958 -0.000228395 -0.000230484 -0.00021848 -0.000228395 -0.000266527 -0.000278681 -0.000228395 -0.000230484 -0.000278681 -0.000283916 -1.96216e-05 -5.74476e-06 -0.000100627 -8.94329e-05 -5.74476e-06 7.6245e-06 -8.94329e-05 -7.65883e-05 -0.000100627 -8.94329e-05 -0.000169958 -0.000162517 -8.94329e-05 -7.65883e-05 -0.000162517 -0.000152062 7.6245e-06 1.93746e-05 -7.65883e-05 -6.39566e-05 1.93746e-05 2.93177e-05 -6.39566e-05 -5.24357e-05 -7.65883e-05 -6.39566e-05 -0.000152062 -0.000140581 -6.39566e-05 -5.24357e-05 -0.000140581 -0.000129331 -0.000169958 -0.000162517 -0.000230484 -0.000226831 -0.000162517 -0.000152062 -0.000226831 -0.000219486 -0.000230484 -0.000226831 -0.000283916 -0.000283696 -0.000226831 -0.000219486 -0.000283696 -0.000279577 -0.000152062 -0.000140581 -0.000219486 -0.000210256 -0.000140581 -0.000129331 -0.000210256 -0.000200479 -0.000219486 -0.000210256 -0.000279577 -0.000273069 -0.000210256 -0.000200479 -0.000273069 -0.000265427 0.00034994 0.000335545 0.000279956 0.000272566 0.000335545 0.00032663 0.000272566 0.0002679 0.000279956 0.000272566 0.000199303 0.000198606 0.000272566 0.0002679 0.000198606 0.000198507 0.00032663 0.000322442 0.0002679 0.00026568 0.000322442 0.000322044 0.00026568 0.000265427 0.0002679 0.00026568 0.000198507 0.000199104 0.00026568 0.000265427 0.000199104 0.00020031 0.000199303 0.000198606 0.000114223 0.000118919 0.000198606 0.000198507 0.000118919 0.000122854 0.000114223 0.000118919 2.93177e-05 3.76126e-05 0.000118919 0.000122854 3.76126e-05 4.45132e-05 0.000198507 0.000199104 0.000122854 0.000126301 0.000199104 0.00020031 0.000126301 0.000129403 0.000122854 0.000126301 4.45132e-05 5.02687e-05 0.000126301 0.000129403 5.02687e-05 5.50892e-05 0.000322044 0.000324276 0.000265427 0.000266502 0.000324276 0.00032774 0.000266502 0.000268147 0.000265427 0.000266502 0.00020031 0.00020191 0.000266502 0.000268147 0.00020191 0.000203585 0.00032774 0.000330812 0.000268147 0.000269528 0.000330812 0.000331941 0.000269528 0.00026974 0.000268147 0.000269528 0.000203585 0.000204875 0.000269528 0.00026974 0.000204875 0.000204856 0.00020031 0.00020191 0.000129403 0.000132199 0.00020191 0.000203585 0.000132199 0.000134613 0.000129403 0.000132199 5.50892e-05 5.91238e-05 0.000132199 0.000134613 5.91238e-05 6.24135e-05 0.000203585 0.000204875 0.000134613 0.000136351 0.000204875 0.000204856 0.000136351 0.000136672 0.000134613 0.000136351 6.24135e-05 6.48038e-05 0.000136351 0.000136672 6.48038e-05 6.58261e-05 2.93177e-05 3.76126e-05 -5.24357e-05 -4.23556e-05 3.76126e-05 4.45132e-05 -4.23556e-05 -3.37515e-05 -5.24357e-05 -4.23556e-05 -0.000129331 -0.000118996 -4.23556e-05 -3.37515e-05 -0.000118996 -0.000109876 4.45132e-05 5.02687e-05 -3.37515e-05 -2.65162e-05 5.02687e-05 5.50892e-05 -2.65162e-05 -2.04844e-05 -3.37515e-05 -2.65162e-05 -0.000109876 -0.000102039 -2.65162e-05 -2.04844e-05 -0.000102039 -9.54112e-05 -0.000129331 -0.000118996 -0.000200479 -0.000191015 -0.000118996 -0.000109876 -0.000191015 -0.000182341 -0.000200479 -0.000191015 -0.000265427 -0.000257554 -0.000191015 -0.000182341 -0.000257554 -0.000250007 -0.000109876 -0.000102039 -0.000182341 -0.000174671 -0.000102039 -9.54112e-05 -0.000174671 -0.000168027 -0.000182341 -0.000174671 -0.000250007 -0.000243088 -0.000174671 -0.000168027 -0.000243088 -0.000236892 5.50892e-05 5.91238e-05 -2.04844e-05 -1.54926e-05 5.91238e-05 6.24135e-05 -1.54926e-05 -1.14396e-05 -2.04844e-05 -1.54926e-05 -9.54112e-05 -8.98613e-05 -1.54926e-05 -1.14396e-05 -8.98613e-05 -8.52548e-05 6.24135e-05 6.48038e-05 -1.14396e-05 -8.34921e-06 6.48038e-05 6.58261e-05 -8.34921e-06 -6.40572e-06 -1.14396e-05 -8.34921e-06 -8.52548e-05 -8.14979e-05 -8.34921e-06 -6.40572e-06 -8.14979e-05 -7.85257e-05 -9.54112e-05 -8.98613e-05 -0.000168027 -0.000162317 -8.98613e-05 -8.52548e-05 -0.000162317 -0.000157385 -0.000168027 -0.000162317 -0.000236892 -0.000231356 -0.000162317 -0.000157385 -0.000231356 -0.000226306 -8.52548e-05 -8.14979e-05 -0.000157385 -0.000153038 -8.14979e-05 -7.85257e-05 -0.000153038 -0.000149013 -0.000157385 -0.000153038 -0.000226306 -0.00022146 -0.000153038 -0.000149013 -0.00022146 -0.000216414 -0.000218326 -0.000246476 -0.000261445 -0.000288903 -0.000246476 -0.000266527 -0.000288903 -0.000309506 -0.000261445 -0.000288903 -0.000299644 -0.000326537 -0.000288903 -0.000309506 -0.000326537 -0.000347544 -0.000266527 -0.000278681 -0.000309506 -0.000323371 -0.000278681 -0.000283916 -0.000323371 -0.000331159 -0.000309506 -0.000323371 -0.000347544 -0.000362743 -0.000323371 -0.000331159 -0.000362743 -0.000372598 -0.000299644 -0.000326537 -0.000332752 -0.000359198 -0.000326537 -0.000347544 -0.000359198 -0.000380516 -0.000332752 -0.000359198 -0.000360482 -0.00038659 -0.000359198 -0.000380516 -0.00038659 -0.000408156 -0.000347544 -0.000362743 -0.000380516 -0.000396767 -0.000362743 -0.000372598 -0.000396767 -0.00040829 -0.000380516 -0.000396767 -0.000408156 -0.00042523 -0.000396767 -0.00040829 -0.00042523 -0.000438076 -0.000283916 -0.000283696 -0.000331159 -0.000333912 -0.000283696 -0.000279577 -0.000333912 -0.000332837 -0.000331159 -0.000333912 -0.000372598 -0.000377872 -0.000333912 -0.000332837 -0.000377872 -0.000379496 -0.000279577 -0.000273069 -0.000332837 -0.000329127 -0.000273069 -0.000265427 -0.000329127 -0.000323891 -0.000332837 -0.000329127 -0.000379496 -0.000378438 -0.000329127 -0.000323891 -0.000378438 -0.000375608 -0.000372598 -0.000377872 -0.00040829 -0.000415658 -0.000377872 -0.000379496 -0.000415658 -0.000419587 -0.00040829 -0.000415658 -0.000438076 -0.000447131 -0.000415658 -0.000419587 -0.000447131 -0.000452962 -0.000379496 -0.000378438 -0.000419587 -0.000420873 -0.000378438 -0.000375608 -0.000420873 -0.000420271 -0.000419587 -0.000420873 -0.000452962 -0.000456214 -0.000420873 -0.000420271 -0.000456214 -0.000457525 -0.000360482 -0.00038659 -0.000382506 -0.000408372 -0.00038659 -0.000408156 -0.000408372 -0.000430131 -0.000382506 -0.000408372 -0.000398504 -0.000424211 -0.000408372 -0.000430131 -0.000424211 -0.000446114 -0.000408156 -0.00042523 -0.000430131 -0.000447833 -0.00042523 -0.000438076 -0.000447833 -0.000461687 -0.000430131 -0.000447833 -0.000446114 -0.000464259 -0.000447833 -0.000461687 -0.000464259 -0.000478826 -0.000398504 -0.000424211 -0.000408216 -0.000433835 -0.000424211 -0.000446114 -0.000433835 -0.000455826 -0.000408216 -0.000433835 -0.000411473 -0.000437063 -0.000433835 -0.000455826 -0.000437063 -0.000459084 -0.000446114 -0.000464259 -0.000455826 -0.000474237 -0.000464259 -0.000478826 -0.000474237 -0.000489229 -0.000455826 -0.000474237 -0.000459084 -0.000477584 -0.000474237 -0.000489229 -0.000477584 -0.000492717 -0.000438076 -0.000447131 -0.000461687 -0.000472043 -0.000447131 -0.000452962 -0.000472043 -0.000479357 -0.000461687 -0.000472043 -0.000478826 -0.000490104 -0.000472043 -0.000479357 -0.000490104 -0.000498479 -0.000452962 -0.000456214 -0.000479357 -0.000484166 -0.000456214 -0.000457525 -0.000484166 -0.00048701 -0.000479357 -0.000484166 -0.000498479 -0.000504412 -0.000484166 -0.00048701 -0.000504412