# vtk DataFile Version 3.0
#This file was generated by the deal.II library on 2022/11/17 at 0:17:40
ASCII
DATASET UNSTRUCTURED_GRID

POINTS 4384 double
0 0.5 0
0.03125 0.5 0
0 0.53125 0
0.03125 0.53125 0
0.03125 0.5 0
0.0625 0.5 0
0.03125 0.53125 0
0.0625 0.53125 0
0 0.53125 0
0.03125 0.53125 0
0 0.5625 0
0.03125 0.5625 0
0.03125 0.53125 0
0.0625 0.53125 0
0.03125 0.5625 0
0.0625 0.5625 0
0.0625 0.5 0
0.09375 0.5 0
0.0625 0.53125 0
0.09375 0.53125 0
0.09375 0.5 0
0.125 0.5 0
0.09375 0.53125 0
0.125 0.53125 0
0.0625 0.53125 0
0.09375 0.53125 0
0.0625 0.5625 0
0.09375 0.5625 0
0.09375 0.53125 0
0.125 0.53125 0
0.09375 0.5625 0
0.125 0.5625 0
0 0.5625 0
0.03125 0.5625 0
0 0.59375 0
0.03125 0.59375 0
0.03125 0.5625 0
0.0625 0.5625 0
0.03125 0.59375 0
0.0625 0.59375 0
0 0.59375 0
0.03125 0.59375 0
0 0.625 0
0.03125 0.625 0
0.03125 0.59375 0
0.0625 0.59375 0
0.03125 0.625 0
0.0625 0.625 0
0.0625 0.5625 0
0.09375 0.5625 0
0.0625 0.59375 0
0.09375 0.59375 0
0.09375 0.5625 0
0.125 0.5625 0
0.09375 0.59375 0
0.125 0.59375 0
0.0625 0.59375 0
0.09375 0.59375 0
0.0625 0.625 0
0.09375 0.625 0
0.09375 0.59375 0
0.125 0.59375 0
0.09375 0.625 0
0.125 0.625 0
0.125 0.5 0
0.15625 0.5 0
0.125 0.53125 0
0.15625 0.53125 0
0.15625 0.5 0
0.1875 0.5 0
0.15625 0.53125 0
0.1875 0.53125 0
0.125 0.53125 0
0.15625 0.53125 0
0.125 0.5625 0
0.15625 0.5625 0
0.15625 0.53125 0
0.1875 0.53125 0
0.15625 0.5625 0
0.1875 0.5625 0
0.1875 0.5 0
0.21875 0.5 0
0.1875 0.53125 0
0.21875 0.53125 0
0.21875 0.5 0
0.25 0.5 0
0.21875 0.53125 0
0.25 0.53125 0
0.1875 0.53125 0
0.21875 0.53125 0
0.1875 0.5625 0
0.21875 0.5625 0
0.21875 0.53125 0
0.25 0.53125 0
0.21875 0.5625 0
0.25 0.5625 0
0.125 0.5625 0
0.15625 0.5625 0
0.125 0.59375 0
0.15625 0.59375 0
0.15625 0.5625 0
0.1875 0.5625 0
0.15625 0.59375 0
0.1875 0.59375 0
0.125 0.59375 0
0.15625 0.59375 0
0.125 0.625 0
0.15625 0.625 0
0.15625 0.59375 0
0.1875 0.59375 0
0.15625 0.625 0
0.1875 0.625 0
0.1875 0.5625 0
0.21875 0.5625 0
0.1875 0.59375 0
0.21875 0.59375 0
0.21875 0.5625 0
0.25 0.5625 0
0.21875 0.59375 0
0.25 0.59375 0
0.1875 0.59375 0
0.21875 0.59375 0
0.1875 0.625 0
0.21875 0.625 0
0.21875 0.59375 0
0.25 0.59375 0
0.21875 0.625 0
0.25 0.625 0
0 0.625 0
0.03125 0.625 0
0 0.65625 0
0.03125 0.65625 0
0.03125 0.625 0
0.0625 0.625 0
0.03125 0.65625 0
0.0625 0.65625 0
0 0.65625 0
0.03125 0.65625 0
0 0.6875 0
0.03125 0.6875 0
0.03125 0.65625 0
0.0625 0.65625 0
0.03125 0.6875 0
0.0625 0.6875 0
0.0625 0.625 0
0.09375 0.625 0
0.0625 0.65625 0
0.09375 0.65625 0
0.09375 0.625 0
0.125 0.625 0
0.09375 0.65625 0
0.125 0.65625 0
0.0625 0.65625 0
0.09375 0.65625 0
0.0625 0.6875 0
0.09375 0.6875 0
0.09375 0.65625 0
0.125 0.65625 0
0.09375 0.6875 0
0.125 0.6875 0
0 0.6875 0
0.03125 0.6875 0
0 0.71875 0
0.03125 0.71875 0
0.03125 0.6875 0
0.0625 0.6875 0
0.03125 0.71875 0
0.0625 0.71875 0
0 0.71875 0
0.03125 0.71875 0
0 0.75 0
0.03125 0.75 0
0.03125 0.71875 0
0.0625 0.71875 0
0.03125 0.75 0
0.0625 0.75 0
0.0625 0.6875 0
0.09375 0.6875 0
0.0625 0.71875 0
0.09375 0.71875 0
0.09375 0.6875 0
0.125 0.6875 0
0.09375 0.71875 0
0.125 0.71875 0
0.0625 0.71875 0
0.09375 0.71875 0
0.0625 0.75 0
0.09375 0.75 0
0.09375 0.71875 0
0.125 0.71875 0
0.09375 0.75 0
0.125 0.75 0
0.125 0.625 0
0.15625 0.625 0
0.125 0.65625 0
0.15625 0.65625 0
0.15625 0.625 0
0.1875 0.625 0
0.15625 0.65625 0
0.1875 0.65625 0
0.125 0.65625 0
0.15625 0.65625 0
0.125 0.6875 0
0.15625 0.6875 0
0.15625 0.65625 0
0.1875 0.65625 0
0.15625 0.6875 0
0.1875 0.6875 0
0.1875 0.625 0
0.21875 0.625 0
0.1875 0.65625 0
0.21875 0.65625 0
0.21875 0.625 0
0.25 0.625 0
0.21875 0.65625 0
0.25 0.65625 0
0.1875 0.65625 0
0.21875 0.65625 0
0.1875 0.6875 0
0.21875 0.6875 0
0.21875 0.65625 0
0.25 0.65625 0
0.21875 0.6875 0
0.25 0.6875 0
0.125 0.6875 0
0.15625 0.6875 0
0.125 0.71875 0
0.15625 0.71875 0
0.15625 0.6875 0
0.1875 0.6875 0
0.15625 0.71875 0
0.1875 0.71875 0
0.125 0.71875 0
0.15625 0.71875 0
0.125 0.75 0
0.15625 0.75 0
0.15625 0.71875 0
0.1875 0.71875 0
0.15625 0.75 0
0.1875 0.75 0
0.1875 0.6875 0
0.21875 0.6875 0
0.1875 0.71875 0
0.21875 0.71875 0
0.21875 0.6875 0
0.25 0.6875 0
0.21875 0.71875 0
0.25 0.71875 0
0.1875 0.71875 0
0.21875 0.71875 0
0.1875 0.75 0
0.21875 0.75 0
0.21875 0.71875 0
0.25 0.71875 0
0.21875 0.75 0
0.25 0.75 0
0.25 0.5 0
0.28125 0.5 0
0.25 0.53125 0
0.28125 0.53125 0
0.28125 0.5 0
0.3125 0.5 0
0.28125 0.53125 0
0.3125 0.53125 0
0.25 0.53125 0
0.28125 0.53125 0
0.25 0.5625 0
0.28125 0.5625 0
0.28125 0.53125 0
0.3125 0.53125 0
0.28125 0.5625 0
0.3125 0.5625 0
0.3125 0.5 0
0.34375 0.5 0
0.3125 0.53125 0
0.34375 0.53125 0
0.34375 0.5 0
0.375 0.5 0
0.34375 0.53125 0
0.375 0.53125 0
0.3125 0.53125 0
0.34375 0.53125 0
0.3125 0.5625 0
0.34375 0.5625 0
0.34375 0.53125 0
0.375 0.53125 0
0.34375 0.5625 0
0.375 0.5625 0
0.25 0.5625 0
0.28125 0.5625 0
0.25 0.59375 0
0.28125 0.59375 0
0.28125 0.5625 0
0.3125 0.5625 0
0.28125 0.59375 0
0.3125 0.59375 0
0.25 0.59375 0
0.28125 0.59375 0
0.25 0.625 0
0.28125 0.625 0
0.28125 0.59375 0
0.3125 0.59375 0
0.28125 0.625 0
0.3125 0.625 0
0.3125 0.5625 0
0.34375 0.5625 0
0.3125 0.59375 0
0.34375 0.59375 0
0.34375 0.5625 0
0.375 0.5625 0
0.34375 0.59375 0
0.375 0.59375 0
0.3125 0.59375 0
0.34375 0.59375 0
0.3125 0.625 0
0.34375 0.625 0
0.34375 0.59375 0
0.375 0.59375 0
0.34375 0.625 0
0.375 0.625 0
0.375 0.5625 0
0.40625 0.5625 0
0.375 0.59375 0
0.40625 0.59375 0
0.40625 0.5625 0
0.4375 0.5625 0
0.40625 0.59375 0
0.4375 0.59375 0
0.375 0.59375 0
0.40625 0.59375 0
0.375 0.625 0
0.40625 0.625 0
0.40625 0.59375 0
0.4375 0.59375 0
0.40625 0.625 0
0.4375 0.625 0
0.4375 0.5625 0
0.46875 0.5625 0
0.4375 0.59375 0
0.46875 0.59375 0
0.46875 0.5625 0
0.5 0.5625 0
0.46875 0.59375 0
0.5 0.59375 0
0.4375 0.59375 0
0.46875 0.59375 0
0.4375 0.625 0
0.46875 0.625 0
0.46875 0.59375 0
0.5 0.59375 0
0.46875 0.625 0
0.5 0.625 0
0.25 0.625 0
0.28125 0.625 0
0.25 0.65625 0
0.28125 0.65625 0
0.28125 0.625 0
0.3125 0.625 0
0.28125 0.65625 0
0.3125 0.65625 0
0.25 0.65625 0
0.28125 0.65625 0
0.25 0.6875 0
0.28125 0.6875 0
0.28125 0.65625 0
0.3125 0.65625 0
0.28125 0.6875 0
0.3125 0.6875 0
0.3125 0.625 0
0.34375 0.625 0
0.3125 0.65625 0
0.34375 0.65625 0
0.34375 0.625 0
0.375 0.625 0
0.34375 0.65625 0
0.375 0.65625 0
0.3125 0.65625 0
0.34375 0.65625 0
0.3125 0.6875 0
0.34375 0.6875 0
0.34375 0.65625 0
0.375 0.65625 0
0.34375 0.6875 0
0.375 0.6875 0
0.25 0.6875 0
0.28125 0.6875 0
0.25 0.71875 0
0.28125 0.71875 0
0.28125 0.6875 0
0.3125 0.6875 0
0.28125 0.71875 0
0.3125 0.71875 0
0.25 0.71875 0
0.28125 0.71875 0
0.25 0.75 0
0.28125 0.75 0
0.28125 0.71875 0
0.3125 0.71875 0
0.28125 0.75 0
0.3125 0.75 0
0.3125 0.6875 0
0.34375 0.6875 0
0.3125 0.71875 0
0.34375 0.71875 0
0.34375 0.6875 0
0.375 0.6875 0
0.34375 0.71875 0
0.375 0.71875 0
0.3125 0.71875 0
0.34375 0.71875 0
0.3125 0.75 0
0.34375 0.75 0
0.34375 0.71875 0
0.375 0.71875 0
0.34375 0.75 0
0.375 0.75 0
0.375 0.625 0
0.40625 0.625 0
0.375 0.65625 0
0.40625 0.65625 0
0.40625 0.625 0
0.4375 0.625 0
0.40625 0.65625 0
0.4375 0.65625 0
0.375 0.65625 0
0.40625 0.65625 0
0.375 0.6875 0
0.40625 0.6875 0
0.40625 0.65625 0
0.4375 0.65625 0
0.40625 0.6875 0
0.4375 0.6875 0
0.4375 0.625 0
0.46875 0.625 0
0.4375 0.65625 0
0.46875 0.65625 0
0.46875 0.625 0
0.5 0.625 0
0.46875 0.65625 0
0.5 0.65625 0
0.4375 0.65625 0
0.46875 0.65625 0
0.4375 0.6875 0
0.46875 0.6875 0
0.46875 0.65625 0
0.5 0.65625 0
0.46875 0.6875 0
0.5 0.6875 0
0.375 0.6875 0
0.40625 0.6875 0
0.375 0.71875 0
0.40625 0.71875 0
0.40625 0.6875 0
0.4375 0.6875 0
0.40625 0.71875 0
0.4375 0.71875 0
0.375 0.71875 0
0.40625 0.71875 0
0.375 0.75 0
0.40625 0.75 0
0.40625 0.71875 0
0.4375 0.71875 0
0.40625 0.75 0
0.4375 0.75 0
0.4375 0.6875 0
0.46875 0.6875 0
0.4375 0.71875 0
0.46875 0.71875 0
0.46875 0.6875 0
0.5 0.6875 0
0.46875 0.71875 0
0.5 0.71875 0
0.4375 0.71875 0
0.46875 0.71875 0
0.4375 0.75 0
0.46875 0.75 0
0.46875 0.71875 0
0.5 0.71875 0
0.46875 0.75 0
0.5 0.75 0
0 0.75 0
0.03125 0.75 0
0 0.78125 0
0.03125 0.78125 0
0.03125 0.75 0
0.0625 0.75 0
0.03125 0.78125 0
0.0625 0.78125 0
0 0.78125 0
0.03125 0.78125 0
0 0.8125 0
0.03125 0.8125 0
0.03125 0.78125 0
0.0625 0.78125 0
0.03125 0.8125 0
0.0625 0.8125 0
0.0625 0.75 0
0.09375 0.75 0
0.0625 0.78125 0
0.09375 0.78125 0
0.09375 0.75 0
0.125 0.75 0
0.09375 0.78125 0
0.125 0.78125 0
0.0625 0.78125 0
0.09375 0.78125 0
0.0625 0.8125 0
0.09375 0.8125 0
0.09375 0.78125 0
0.125 0.78125 0
0.09375 0.8125 0
0.125 0.8125 0
0 0.8125 0
0.03125 0.8125 0
0 0.84375 0
0.03125 0.84375 0
0.03125 0.8125 0
0.0625 0.8125 0
0.03125 0.84375 0
0.0625 0.84375 0
0 0.84375 0
0.03125 0.84375 0
0 0.875 0
0.03125 0.875 0
0.03125 0.84375 0
0.0625 0.84375 0
0.03125 0.875 0
0.0625 0.875 0
0.0625 0.8125 0
0.09375 0.8125 0
0.0625 0.84375 0
0.09375 0.84375 0
0.09375 0.8125 0
0.125 0.8125 0
0.09375 0.84375 0
0.125 0.84375 0
0.0625 0.84375 0
0.09375 0.84375 0
0.0625 0.875 0
0.09375 0.875 0
0.09375 0.84375 0
0.125 0.84375 0
0.09375 0.875 0
0.125 0.875 0
0.125 0.75 0
0.15625 0.75 0
0.125 0.78125 0
0.15625 0.78125 0
0.15625 0.75 0
0.1875 0.75 0
0.15625 0.78125 0
0.1875 0.78125 0
0.125 0.78125 0
0.15625 0.78125 0
0.125 0.8125 0
0.15625 0.8125 0
0.15625 0.78125 0
0.1875 0.78125 0
0.15625 0.8125 0
0.1875 0.8125 0
0.1875 0.75 0
0.21875 0.75 0
0.1875 0.78125 0
0.21875 0.78125 0
0.21875 0.75 0
0.25 0.75 0
0.21875 0.78125 0
0.25 0.78125 0
0.1875 0.78125 0
0.21875 0.78125 0
0.1875 0.8125 0
0.21875 0.8125 0
0.21875 0.78125 0
0.25 0.78125 0
0.21875 0.8125 0
0.25 0.8125 0
0.125 0.8125 0
0.15625 0.8125 0
0.125 0.84375 0
0.15625 0.84375 0
0.15625 0.8125 0
0.1875 0.8125 0
0.15625 0.84375 0
0.1875 0.84375 0
0.125 0.84375 0
0.15625 0.84375 0
0.125 0.875 0
0.15625 0.875 0
0.15625 0.84375 0
0.1875 0.84375 0
0.15625 0.875 0
0.1875 0.875 0
0.1875 0.8125 0
0.21875 0.8125 0
0.1875 0.84375 0
0.21875 0.84375 0
0.21875 0.8125 0
0.25 0.8125 0
0.21875 0.84375 0
0.25 0.84375 0
0.1875 0.84375 0
0.21875 0.84375 0
0.1875 0.875 0
0.21875 0.875 0
0.21875 0.84375 0
0.25 0.84375 0
0.21875 0.875 0
0.25 0.875 0
0 0.875 0
0.03125 0.875 0
0 0.90625 0
0.03125 0.90625 0
0.03125 0.875 0
[...]
POINT_DATA 4384
SCALARS x_dis double 1
LOOKUP_TABLE default
0.000824293 0.000785044 0.000791774 0.00075208 0.000785044 0.000743719 0.00075208 0.000710656 0.000791774 0.00075208 0.000750249 0.000709627 0.00075208 0.000710656 0.000709627 0.000667704 0.000743719 0.000701872 0.000710656 0.000669037 0.000701872 0.000660706 0.000669037 0.000628402 0.000710656 0.000669037 0.000667704 0.000625898 0.000669037 0.000628402 0.000625898 0.000585283 0.000750249 0.000709627 0.000700584 0.000658596 0.000709627 0.000667704 0.000658596 0.000615821 0.000700584 0.000658596 0.000644037 0.000600323 0.000658596 0.000615821 0.000600323 0.000556409 0.000667704 0.000625898 0.000615821 0.000573471 0.000625898 0.000585283 0.000573471 0.000532457 0.000615821 0.000573471 0.000556409 0.000513253 0.000573471 0.000532457 0.000513253 0.000471561 0.000660706 0.000621191 0.000628402 0.000589694 0.000621191 0.000584156 0.000589694 0.000553695 0.000628402 0.000589694 0.000585283 0.000546695 0.000589694 0.000553695 0.000546695 0.00051079 0.000584156 0.000550339 0.000553695 0.000521079 0.000550339 0.000520433 0.000521079 0.00049244 0.000553695 0.000521079 0.00051079 0.000478072 0.000521079 0.00049244 0.000478072 0.0004489 0.000585283 0.000546695 0.000532457 0.000493456 0.000546695 0.00051079 0.000493456 0.000456948 0.000532457 0.000493456 0.000471561 0.000431825 0.000493456 0.000456948 0.000431825 0.000394341 0.00051079 0.000478072 0.000456948 0.000423224 0.000478072 0.0004489 0.000423224 0.000392375 0.000456948 0.000423224 0.000394341 0.000359204 0.000423224 0.000392375 0.000359204 0.000326288 0.000644037 0.000600323 0.000582194 0.000536483 0.000600323 0.000556409 0.000536483 0.000491232 0.000582194 0.000536483 0.000516877 0.000469 0.000536483 0.000491232 0.000469 0.000422299 0.000556409 0.000513253 0.000491232 0.000447112 0.000513253 0.000471561 0.000447112 0.000404608 0.000491232 0.000447112 0.000422299 0.000377154 0.000447112 0.000404608 0.000377154 0.000333833 0.000516877 0.000469 0.000450048 0.000399938 0.000469 0.000422299 0.000399938 0.000351755 0.000450048 0.000399938 0.00038372 0.000331401 0.000399938 0.000351755 0.000331401 0.000281774 0.000422299 0.000377154 0.000351755 0.000305605 0.000377154 0.000333833 0.000305605 0.000261554 0.000351755 0.000305605 0.000281774 0.000234697 0.000305605 0.000261554 0.000234697 0.000190055 0.000471561 0.000431825 0.000404608 0.000364028 0.000431825 0.000394341 0.000364028 0.000325505 0.000404608 0.000364028 0.000333833 0.000292475 0.000364028 0.000325505 0.000292475 0.000253076 0.000394341 0.000359204 0.000325505 0.000288982 0.000359204 0.000326288 0.000288982 0.000254203 0.000325505 0.000288982 0.000253076 0.000215484 0.000288982 0.000254203 0.000215484 0.000179391 0.000333833 0.000292475 0.000261554 0.000219591 0.000292475 0.000253076 0.000219591 0.00017961 0.000261554 0.000219591 0.000190055 0.00014771 0.000219591 0.00017961 0.00014771 0.000107476 0.000253076 0.000215484 0.00017961 0.000141401 0.000215484 0.000179391 0.000141401 0.000104656 0.00017961 0.000141401 0.000107476 6.91111e-05 0.000141401 0.000104656 6.91111e-05 3.23284e-05 0.000520433 0.000495126 0.00049244 0.000468313 0.000495126 0.000475153 0.000468313 0.000449183 0.00049244 0.000468313 0.0004489 0.00042346 0.000468313 0.000449183 0.00042346 0.000401692 0.000475153 0.00046142 0.000449183 0.000435466 0.00046142 0.000455138 0.000435466 0.000427478 0.000449183 0.000435466 0.000401692 0.000383118 0.000435466 0.000427478 0.000383118 0.000366474 0.0004489 0.00042346 0.000392375 0.000364237 0.00042346 0.000401692 0.000364237 0.000338287 0.000392375 0.000364237 0.000326288 0.000295198 0.000364237 0.000338287 0.000295198 0.00026521 0.000401692 0.000383118 0.000338287 0.00031347 0.000383118 0.000366474 0.00031347 0.000287882 0.000338287 0.00031347 0.00026521 0.00023519 0.00031347 0.000287882 0.00023519 0.000203618 0.000366474 0.000348114 0.000287882 0.00025875 0.000348114 0.000323369 0.00025875 0.000222263 0.000287882 0.00025875 0.000203618 0.0001688 0.00025875 0.000222263 0.0001688 0.000130235 0.000323369 0.000282569 0.000222263 0.000178746 0.000282569 0.000234454 0.000178746 0.000139614 0.000222263 0.000178746 0.000130235 9.09491e-05 0.000178746 0.000139614 9.09491e-05 5.85246e-05 0.000326288 0.000295198 0.000254203 0.000220691 0.000295198 0.00026521 0.000220691 0.000187748 0.000254203 0.000220691 0.000179391 0.000144346 0.000220691 0.000187748 0.000144346 0.000109803 0.00026521 0.00023519 0.000187748 0.000154498 0.00023519 0.000203618 0.000154498 0.00012005 0.000187748 0.000154498 0.000109803 7.52208e-05 0.000154498 0.00012005 7.52208e-05 4.02826e-05 0.000179391 0.000144346 0.000104656 6.90025e-05 0.000144346 0.000109803 6.90025e-05 3.40647e-05 0.000104656 6.90025e-05 3.23284e-05 -3.1652e-06 6.90025e-05 3.40647e-05 -3.1652e-06 -3.76057e-05 0.000109803 7.52208e-05 3.40647e-05 -4.16797e-07 7.52208e-05 4.02826e-05 -4.16797e-07 -3.44118e-05 3.40647e-05 -4.16797e-07 -3.76057e-05 -7.10753e-05 -4.16797e-07 -3.44118e-05 -7.10753e-05 -0.000103384 0.000203618 0.0001688 0.00012005 8.39793e-05 0.0001688 0.000130235 8.39793e-05 4.71722e-05 0.00012005 8.39793e-05 4.02826e-05 5.25105e-06 8.39793e-05 4.71722e-05 5.25105e-06 -2.86138e-05 0.000130235 9.09491e-05 4.71722e-05 1.26592e-05 9.09491e-05 5.85246e-05 1.26592e-05 -1.45878e-05 4.71722e-05 1.26592e-05 -2.86138e-05 -5.88542e-05 1.26592e-05 -1.45878e-05 -5.88542e-05 -8.22207e-05 4.02826e-05 5.25105e-06 -3.44118e-05 -6.73864e-05 5.25105e-06 -2.86138e-05 -6.73864e-05 -9.81349e-05 -3.44118e-05 -6.73864e-05 -0.000103384 -0.000133957 -6.73864e-05 -9.81349e-05 -0.000133957 -0.000161788 -2.86138e-05 -5.88542e-05 -9.81349e-05 -0.000124803 -5.88542e-05 -8.22207e-05 -0.000124803 -0.000145227 -9.81349e-05 -0.000124803 -0.000161788 -0.000185519 -0.000124803 -0.000145227 -0.000185519 -0.000203695 0.00038372 0.000331401 0.000319873 0.000265452 0.000331401 0.000281774 0.000265452 0.000214473 0.000319873 0.000265452 0.000260381 0.000204032 0.000265452 0.000214473 0.000204032 0.000151834 0.000281774 0.000234697 0.000214473 0.000166581 0.000234697 0.000190055 0.000166581 0.000121504 0.000214473 0.000166581 0.000151834 0.000103253 0.000166581 0.000121504 0.000103253 5.78897e-05 0.000260381 0.000204032 0.000206957 0.000148906 0.000204032 0.000151834 0.000148906 9.56491e-05 0.000206957 0.000148906 0.000161107 0.00010162 0.000148906 9.56491e-05 0.00010162 4.74835e-05 0.000151834 0.000103253 9.56491e-05 4.65109e-05 0.000103253 5.78897e-05 4.65109e-05 9.82661e-07 9.56491e-05 4.65109e-05 4.74835e-05 -2.08943e-06 4.65109e-05 9.82661e-07 -2.08943e-06 -4.76924e-05 0.000190055 0.00014771 0.000121504 7.89973e-05 0.00014771 0.000107476 7.89973e-05 3.88094e-05 0.000121504 7.89973e-05 5.78897e-05 1.54049e-05 7.89973e-05 3.88094e-05 1.54049e-05 -2.45082e-05 0.000107476 6.91111e-05 3.88094e-05 6.75874e-07 6.91111e-05 3.23284e-05 6.75874e-07 -3.56685e-05 3.88094e-05 6.75874e-07 -2.45082e-05 -6.2135e-05 6.75874e-07 -3.56685e-05 -6.2135e-05 -9.77303e-05 5.78897e-05 1.54049e-05 9.82661e-07 -4.13511e-05 1.54049e-05 -2.45082e-05 -4.13511e-05 -8.08471e-05 9.82661e-07 -4.13511e-05 -4.76924e-05 -8.98052e-05 -4.13511e-05 -8.08471e-05 -8.98052e-05 -0.000128829 -2.45082e-05 -6.2135e-05 -8.08471e-05 -0.000117814 -6.2135e-05 -9.77303e-05 -0.000117814 -0.00015251 -8.08471e-05 -0.000117814 -0.000128829 -0.000165098 -0.000117814 -0.00015251 -0.000165098 -0.000198879 0.000161107 0.00010162 0.000124097 6.34702e-05 0.00010162 4.74835e-05 6.34702e-05 8.64275e-06 0.000124097 6.34702e-05 9.69333e-05 3.54797e-05 6.34702e-05 8.64275e-06 3.54797e-05 -1.98435e-05 4.74835e-05 -2.08943e-06 8.64275e-06 -4.12521e-05 -2.08943e-06 -4.76924e-05 -4.12521e-05 -8.6873e-05 8.64275e-06 -4.12521e-05 -1.98435e-05 -6.99586e-05 -4.12521e-05 -8.6873e-05 -6.99586e-05 -0.00011557 9.69333e-05 3.54797e-05 8.03417e-05 1.83878e-05 3.54797e-05 -1.98435e-05 1.83878e-05 -3.72334e-05 8.03417e-05 1.83878e-05 7.47622e-05 1.26408e-05 1.83878e-05 -3.72334e-05 1.26408e-05 -4.30799e-05 -1.98435e-05 -6.99586e-05 -3.72334e-05 -8.74766e-05 -6.99586e-05 -0.00011557 -8.74766e-05 -0.000133073 -3.72334e-05 -8.74766e-05 -4.30799e-05 -9.33651e-05 -8.74766e-05 -0.000133073 -9.33651e-05 -0.000138955 -4.76924e-05 -8.98052e-05 -8.6873e-05 -0.000128751 -8.98052e-05 -0.000128829 -0.000128751 -0.000167324 -8.6873e-05 -0.000128751 -0.00011557 -0.000157245 -0.000128751 -0.000167324 -0.000157245 -0.000195451 -0.000128829 -0.000165098 -0.000167324 -0.00020295 -0.000165098 -0.000198879 -0.00020295 -0.000235914 -0.000167324 -0.00020295 -0.000195451 -0.000230567 -0.00020295 -0.000235914 -0.000230567 -0.00026289 -0.00011557 -0.000157245 -0.000133073 -0.000174612 -0.000157245 -0.000195451 -0.000174612 -0.00021258 -0.000133073 -0.000174612 -0.000138955 -0.000180447 -0.000174612 -0.00021258 -0.000180447 -0.000218332 -0.000195451 -0.000230567 -0.00021258 -0.000247369 -0.000230567 -0.00026289 -0.000247369 -0.000279286 -0.00021258 -0.000247369 -0.000218332 -0.000253008 -0.000247369 -0.000279286 -0.000253008 -0.000284787 3.23284e-05 -3.1652e-06 -3.56685e-05 -7.04568e-05 -3.1652e-06 -3.76057e-05 -7.04568e-05 -0.000103837 -3.56685e-05 -7.04568e-05 -9.77303e-05 -0.000131493 -7.04568e-05 -0.000103837 -0.000131493 -0.00016353 -3.76057e-05 -7.10753e-05 -0.000103837 -0.000135805 -7.10753e-05 -0.000103384 -0.000135805 -0.000166128 -0.000103837 -0.000135805 -0.00016353 -0.000193808 -0.000135805 -0.000166128 -0.000193808 -0.000222119 -9.77303e-05 -0.000131493 -0.00015251 -0.000185121 -0.000131493 -0.00016353 -0.000185121 -0.000215743 -0.00015251 -0.000185121 -0.000198879 -0.000230365 -0.000185121 -0.000215743 -0.000230365 -0.00025966 -0.00016353 -0.000193808 -0.000215743 -0.000244354 -0.000193808 -0.000222119 -0.000244354 -0.000270794 -0.000215743 -0.000244354 -0.00025966 -0.000286765 -0.000244354 -0.000270794 -0.000286765 -0.000311579 -0.000103384 -0.000133957 -0.000166128 -0.000194298 -0.000133957 -0.000161788 -0.000194298 -0.000219532 -0.000166128 -0.000194298 -0.000222119 -0.000248058 -0.000194298 -0.000219532 -0.000248058 -0.000271048 -0.000161788 -0.000185519 -0.000219532 -0.000240858 -0.000185519 -0.000203695 -0.000240858 -0.00025729 -0.000219532 -0.000240858 -0.000271048 -0.000290406 -0.000240858 -0.00025729 -0.000290406 -0.000305472 -0.000222119 -0.000248058 -0.000270794 -0.000294767 -0.000248058 -0.000271048 -0.000294767 -0.000315866 -0.000270794 -0.000294767 -0.000311579 -0.000333901 -0.000294767 -0.000315866 -0.000333901 -0.000353459 -0.000271048 -0.000290406 -0.000315866 -0.000333628 -0.000290406 -0.000305472 -0.000333628 -0.000347621 -0.000315866 -0.000333628 -0.000353459 -0.000369952 -0.000333628 -0.000347621 -0.000369952 -0.000383112 -0.000198879 -0.000230365 -0.000235914 -0.000266418 -0.000230365 -0.00025966 -0.000266418 -0.000294582 -0.000235914 -0.000266418 -0.00026289 -0.000292638 -0.000266418 -0.000294582 -0.000292638 -0.000319946 -0.00025966 -0.000286765 -0.000294582 -0.000320438 -0.000286765 -0.000311579 -0.000320438 -0.000343936 -0.000294582 -0.000320438 -0.000319946 -0.000344872 -0.000320438 -0.000343936 -0.000344872 -0.000367405 -0.00026289 -0.000292638 -0.000279286 -0.000308559 -0.000292638 -0.000319946 -0.000308559 -0.000335335 -0.000279286 -0.000308559 -0.000284787 -0.000313898 -0.000308559 -0.000335335 -0.000313898 -0.000340493 -0.000319946 -0.000344872 -0.000335335 -0.000359688 -0.000344872 -0.000367405 -0.000359688 -0.000381632 -0.000335335 -0.000359688 -0.000340493 -0.000364653 -0.000359688 -0.000381632 -0.000364653 -0.0003864 -0.000311579 -0.000333901 -0.000343936 -0.000364952 -0.000333901 -0.000353459 -0.000364952 -0.000383315 -0.000343936 -0.000364952 -0.000367405 -0.000387476 -0.000364952 -0.000383315 -0.000387476 -0.000404987 -0.000353459 -0.000369952 -0.000383315 -0.00039884 -0.000369952 -0.000383112 -0.00039884 -0.000411375 -0.000383315 -0.00039884 -0.000404987 -0.00041983 -0.00039884 -0.000411375 -0.00041983 -0.00043193 -0.000367405 -0.000387476 -0.000381632 -0.000401134 -0.000387476 -0.000404987 -0.000401134 -0.000418133 -0.000381632 -0.000401134 -0.0003864 -0.000405711 -0.000401134 -0.000418133 -0.000405711 -0.00042254 -0.000404987 -0.00041983 -0.000418133 -0.00043257 -0.00041983 -0.00043193 -0.00043257 -0.000444413 -0.000418133 -0.00043257 -0.00042254 -0.000436842 -0.00043257 -0.000444413 -0.000436842 -0.000448599 0.000604898 0.000570368 0.000392479 0.000408481 0.000570368 0.000540336 0.000408481 0.000414804 0.000392479 0.000408481 0.000236771 0.000266245 0.000408481 0.000414804 0.000266245 0.000291189 0.000234454 0.000217681 0.000139614 0.000121266 0.000217681 0.000236771 0.000121266 0.000129122 0.000139614 0.000121266 5.85246e-05 4.16934e-05 0.000121266 0.000129122 4.16934e-05 4.37027e-05 0.000236771 0.000266245 0.000129122 0.000152903 0.000266245 0.000291189 0.000152903 0.000181158 0.000129122 0.000152903 4.37027e-05 6.06974e-05 0.000152903 0.000181158 6.06974e-05 8.57184e-05 0.000540336 0.000517834 0.000414804 0.000417837 0.000517834 0.000503002 0.000417837 0.000420744 0.000414804 0.000417837 0.000291189 0.000311072 0.000417837 0.000420744 0.000311072 0.000327564 0.000503002 0.000495175 0.000420744 0.000424993 0.000495175 0.000493334 0.000424993 0.00043109 0.000420744 0.000424993 0.000327564 0.000342093 0.000424993 0.00043109 0.000342093 0.000355602 0.000291189 0.000311072 0.000181158 0.000208101 0.000311072 0.000327564 0.000208101 0.000232202 0.000181158 0.000208101 8.57184e-05 0.00011308 0.000208101 0.000232202 0.00011308 0.000139646 0.000327564 0.000342093 0.000232202 0.000253539 0.000342093 0.000355602 0.000253539 0.000272585 0.000232202 0.000253539 0.000139646 0.000164187 0.000253539 0.000272585 0.000164187 0.000186412 5.85246e-05 4.16934e-05 -1.45878e-05 -2.96884e-05 4.16934e-05 4.37027e-05 -2.96884e-05 -3.0512e-05 -1.45878e-05 -2.96884e-05 -8.22207e-05 -9.57749e-05 -2.96884e-05 -3.0512e-05 -9.57749e-05 -9.81764e-05 4.37027e-05 6.06974e-05 -3.0512e-05 -1.87406e-05 6.06974e-05 8.57184e-05 -1.87406e-05 1.64346e-06 -3.0512e-05 -1.87406e-05 -9.81764e-05 -9.01885e-05 -1.87406e-05 1.64346e-06 -9.01885e-05 -7.42071e-05 -8.22207e-05 -9.57749e-05 -0.000145227 -0.000157573 -9.57749e-05 -9.81764e-05 -0.000157573 -0.000160984 -0.000145227 -0.000157573 -0.000203695 -0.000215135 -0.000157573 -0.000160984 -0.000215135 -0.000219294 -9.81764e-05 -9.01885e-05 -0.000160984 -0.000155846 -9.01885e-05 -7.42071e-05 -0.000155846 -0.000143665 -0.000160984 -0.000155846 -0.000219294 -0.000216405 -0.000155846 -0.000143665 -0.000216405 -0.000207437 8.57184e-05 0.00011308 1.64346e-06 2.62858e-05 0.00011308 0.000139646 2.62858e-05 5.19979e-05 1.64346e-06 2.62858e-05 -7.42071e-05 -5.33e-05 2.62858e-05 5.19979e-05 -5.33e-05 -3.01473e-05 0.000139646 0.000164187 5.19979e-05 7.69186e-05 0.000164187 0.000186412 7.69186e-05 0.000100149 5.19979e-05 7.69186e-05 -3.01473e-05 -6.69019e-06 7.69186e-05 0.000100149 -6.69019e-06 1.58664e-05 -7.42071e-05 -5.33e-05 -0.000143665 -0.000126571 -5.33e-05 -3.01473e-05 -0.000126571 -0.000106672 -0.000143665 -0.000126571 -0.000207437 -0.000193898 -0.000126571 -0.000106672 -0.000193898 -0.000177418 -3.01473e-05 -6.69019e-06 -0.000106672 -8.57225e-05 -6.69019e-06 1.58664e-05 -8.57225e-05 -6.49681e-05 -0.000106672 -8.57225e-05 -0.000177418 -0.000159464 -8.57225e-05 -6.49681e-05 -0.000159464 -0.00014118 0.000493334 0.000496389 0.00043109 0.000438987 0.000496389 0.000503265 0.000438987 0.000448312 0.00043109 0.000438987 0.000355602 0.000368568 0.000438987 0.000448312 0.000368568 0.000381097 0.000503265 0.000512871 0.000448312 0.00045848 0.000512871 0.000524012 0.00045848 0.000468756 0.000448312 0.00045848 0.000381097 0.000393031 0.00045848 0.000468756 0.000393031 0.00040404 0.000355602 0.000368568 0.000272585 0.00028977 0.000368568 0.000381097 0.00028977 0.000305342 0.000272585 0.00028977 0.000186412 0.000206377 0.00028977 0.000305342 0.000206377 0.000224209 0.000381097 0.000393031 0.000305342 0.000319366 0.000393031 0.00040404 0.000319366 0.000331767 0.000305342 0.000319366 0.000224209 0.000239999 0.000319366 0.000331767 0.000239999 0.000253772 0.000524012 0.000535325 0.000468756 0.000478287 0.000535325 0.000545263 0.000478287 0.000486148 0.000468756 0.000478287 0.00040404 0.000413684 0.000478287 0.000486148 0.000413684 0.000421438 0.000545263 0.000552164 0.000486148 0.000491373 0.000552164 0.00055468 0.000491373 0.000493081 0.000486148 0.000491373 0.000421438 0.000426664 0.000491373 0.000493081 0.000426664 0.000428324 0.00040404 0.000413684 0.000331767 0.00034236 0.000413684 0.000421438 0.00034236 0.000350846 0.000331767 0.00034236 0.000253772 0.00026547 0.00034236 0.000350846 0.00026547 0.000274903 0.000421438 0.000426664 0.000350846 0.000356696 0.000426664 0.000428324 0.000356696 0.000358909 0.000350846 0.000356696 0.000274903 0.000281645 0.000356696 0.000358909 0.000281645 0.000284875 0.000186412 0.000206377 0.000100149 0.000121325 0.000206377 0.000224209 0.000121325 0.000140348 0.000100149 0.000121325 1.58664e-05 3.68684e-05 0.000121325 0.000140348 3.68684e-05 5.60012e-05 0.000224209 0.000239999 0.000140348 0.000157216 0.000239999 0.000253772 0.000157216 0.00017195 0.000140348 0.000157216 5.60012e-05 7.31409e-05 0.000157216 0.00017195 7.31409e-05 8.82552e-05 1.58664e-05 3.68684e-05 -6.49681e-05 -4.52038e-05 3.68684e-05 5.60012e-05 -4.52038e-05 -2.68834e-05 -6.49681e-05 -4.52038e-05 -0.00014118 -0.000123374 -4.52038e-05 -2.68834e-05 -0.000123374 -0.000106555 5.60012e-05 7.31409e-05 -2.68834e-05 -1.02289e-05 7.31409e-05 8.82552e-05 -1.02289e-05 4.68049e-06 -2.68834e-05 -1.02289e-05 -0.000106555 -9.09931e-05 -1.02289e-05 4.68049e-06 -9.09931e-05 -7.67864e-05 0.000253772 0.00026547 0.00017195 0.000184529 0.00026547 0.000274903 0.000184529 0.000194836 0.00017195 0.000184529 8.82552e-05 0.000101332 0.000184529 0.000194836 0.000101332 0.000112314 0.000274903 0.000281645 0.000194836 0.000202571 0.000281645 0.000284875 0.000202571 0.000207165 0.000194836 0.000202571 0.000112314 0.000121053 0.000202571 0.000207165 0.000121053 0.000127244 8.82552e-05 0.000101332 4.68049e-06 1.78388e-05 0.000101332 0.000112314 1.78388e-05 2.92627e-05 4.68049e-06 1.78388e-05 -7.67864e-05 -6.39161e-05 1.78388e-05 2.92627e-05 -6.39161e-05 -5.22717e-05 0.000112314 0.000121053 2.92627e-05 3.89578e-05 0.000121053 0.000127244 3.89578e-05 4.68787e-05 2.92627e-05 3.89578e-05 -5.22717e-05 -4.17006e-05 3.89578e-05 4.68787e-05 -4.17006e-05 -3.20067e-05 -0.000203695 -0.000215135 -0.00025729 -0.000268061 -0.000215135 -0.000219294 -0.000268061 -0.000272828 -0.00025729 -0.000268061 -0.000305472 -0.00031575 -0.000268061 -0.000272828 -0.00031575 -0.00032104 -0.000219294 -0.000216405 -0.000272828 -0.000271773 -0.000216405 -0.000207437 -0.000271773 -0.000265531 -0.000272828 -0.000271773 -0.00032104 -0.000321496 -0.000271773 -0.000265531 -0.000321496 -0.000317565 -0.000305472 -0.00031575 -0.000347621 -0.000357537 -0.00031575 -0.00032104 -0.000357537 -0.000363276 -0.000347621 -0.000357537 -0.000383112 -0.000392763 -0.000357537 -0.000363276 -0.000392763 -0.000398878 -0.00032104 -0.000321496 -0.000363276 -0.000364972 -0.000321496 -0.000317565 -0.000364972 -0.000362986 -0.000363276 -0.000364972 -0.000398878 -0.000401582 -0.000364972 -0.000362986 -0.000401582 -0.000401188 -0.000207437 -0.000193898 -0.000265531 -0.000255196 -0.000193898 -0.000177418 -0.000255196 -0.000242022 -0.000265531 -0.000255196 -0.000317565 -0.000310057 -0.000255196 -0.000242022 -0.000310057 -0.000299935 -0.000177418 -0.000159464 -0.000242022 -0.000227195 -0.000159464 -0.00014118 -0.000227195 -0.000211697 -0.000242022 -0.000227195 -0.000299935 -0.00028814 -0.000227195 -0.000211697 -0.00028814 -0.00027548 -0.000317565 -0.000310057 -0.000362986 -0.000357916 -0.000310057 -0.000299935 -0.000357916 -0.000350505 -0.000362986 -0.000357916 -0.000401188 -0.00039815 -0.000357916 -0.000350505 -0.00039815 -0.000393047 -0.000299935 -0.00028814 -0.000350505 -0.000341491 -0.00028814 -0.00027548 -0.000341491 -0.000331522 -0.000350505 -0.000341491 -0.000393047 -0.000386454 -0.000341491 -0.000331522 -0.000386454 -0.000378878 -0.000383112 -0.000392763 -0.000411375 -0.000420838 -0.000392763 -0.000