# vtk DataFile Version 3.0
#This file was generated by the deal.II library on 2022/11/17 at 1:21:35
ASCII
DATASET UNSTRUCTURED_GRID

POINTS 10288 double
0.4375 0.75 0
0.46875 0.75 0
0.4375 0.78125 0
0.46875 0.78125 0
0.46875 0.75 0
0.5 0.75 0
0.46875 0.78125 0
0.5 0.78125 0
0.4375 0.78125 0
0.46875 0.78125 0
0.4375 0.8125 0
0.46875 0.8125 0
0.46875 0.78125 0
0.5 0.78125 0
0.46875 0.8125 0
0.5 0.8125 0
0.4375 0.8125 0
0.46875 0.8125 0
0.4375 0.84375 0
0.46875 0.84375 0
0.46875 0.8125 0
0.5 0.8125 0
0.46875 0.84375 0
0.5 0.84375 0
0.4375 0.84375 0
0.46875 0.84375 0
0.4375 0.875 0
0.46875 0.875 0
0.46875 0.84375 0
0.5 0.84375 0
0.46875 0.875 0
0.5 0.875 0
0.375 0.875 0
0.40625 0.875 0
0.375 0.90625 0
0.40625 0.90625 0
0.40625 0.875 0
0.4375 0.875 0
0.40625 0.90625 0
0.4375 0.90625 0
0.375 0.90625 0
0.40625 0.90625 0
0.375 0.9375 0
0.40625 0.9375 0
0.40625 0.90625 0
0.4375 0.90625 0
0.40625 0.9375 0
0.4375 0.9375 0
0.4375 0.875 0
0.46875 0.875 0
0.4375 0.90625 0
0.46875 0.90625 0
0.46875 0.875 0
0.5 0.875 0
0.46875 0.90625 0
0.5 0.90625 0
0.4375 0.90625 0
0.46875 0.90625 0
0.4375 0.9375 0
0.46875 0.9375 0
0.46875 0.90625 0
0.5 0.90625 0
0.46875 0.9375 0
0.5 0.9375 0
0.625 0.5 0
0.65625 0.5 0
0.625 0.53125 0
0.65625 0.53125 0
0.65625 0.5 0
0.6875 0.5 0
0.65625 0.53125 0
0.6875 0.53125 0
0.625 0.53125 0
0.65625 0.53125 0
0.625 0.5625 0
0.65625 0.5625 0
0.65625 0.53125 0
0.6875 0.53125 0
0.65625 0.5625 0
0.6875 0.5625 0
0.6875 0.5 0
0.71875 0.5 0
0.6875 0.53125 0
0.71875 0.53125 0
0.71875 0.5 0
0.75 0.5 0
0.71875 0.53125 0
0.75 0.53125 0
0.6875 0.53125 0
0.71875 0.53125 0
0.6875 0.5625 0
0.71875 0.5625 0
0.71875 0.53125 0
0.75 0.53125 0
0.71875 0.5625 0
0.75 0.5625 0
0.625 0.5625 0
0.65625 0.5625 0
0.625 0.59375 0
0.65625 0.59375 0
0.65625 0.5625 0
0.6875 0.5625 0
0.65625 0.59375 0
0.6875 0.59375 0
0.625 0.59375 0
0.65625 0.59375 0
0.625 0.625 0
0.65625 0.625 0
0.65625 0.59375 0
0.6875 0.59375 0
0.65625 0.625 0
0.6875 0.625 0
0.6875 0.5625 0
0.71875 0.5625 0
0.6875 0.59375 0
0.71875 0.59375 0
0.71875 0.5625 0
0.75 0.5625 0
0.71875 0.59375 0
0.75 0.59375 0
0.6875 0.59375 0
0.71875 0.59375 0
0.6875 0.625 0
0.71875 0.625 0
0.71875 0.59375 0
0.75 0.59375 0
0.71875 0.625 0
0.75 0.625 0
0.5625 0.625 0
0.59375 0.625 0
0.5625 0.65625 0
0.59375 0.65625 0
0.59375 0.625 0
0.625 0.625 0
0.59375 0.65625 0
0.625 0.65625 0
0.5625 0.65625 0
0.59375 0.65625 0
0.5625 0.6875 0
0.59375 0.6875 0
0.59375 0.65625 0
0.625 0.65625 0
0.59375 0.6875 0
0.625 0.6875 0
0.5 0.6875 0
0.53125 0.6875 0
0.5 0.71875 0
0.53125 0.71875 0
0.53125 0.6875 0
0.5625 0.6875 0
0.53125 0.71875 0
0.5625 0.71875 0
0.5 0.71875 0
0.53125 0.71875 0
0.5 0.75 0
0.53125 0.75 0
0.53125 0.71875 0
0.5625 0.71875 0
0.53125 0.75 0
0.5625 0.75 0
0.5625 0.6875 0
0.59375 0.6875 0
0.5625 0.71875 0
0.59375 0.71875 0
0.59375 0.6875 0
0.625 0.6875 0
0.59375 0.71875 0
0.625 0.71875 0
0.5625 0.71875 0
0.59375 0.71875 0
0.5625 0.75 0
0.59375 0.75 0
0.59375 0.71875 0
0.625 0.71875 0
0.59375 0.75 0
0.625 0.75 0
0.625 0.625 0
0.65625 0.625 0
0.625 0.65625 0
0.65625 0.65625 0
0.65625 0.625 0
0.6875 0.625 0
0.65625 0.65625 0
0.6875 0.65625 0
0.625 0.65625 0
0.65625 0.65625 0
0.625 0.6875 0
0.65625 0.6875 0
0.65625 0.65625 0
0.6875 0.65625 0
0.65625 0.6875 0
0.6875 0.6875 0
0.6875 0.625 0
0.71875 0.625 0
0.6875 0.65625 0
0.71875 0.65625 0
0.71875 0.625 0
0.75 0.625 0
0.71875 0.65625 0
0.75 0.65625 0
0.6875 0.65625 0
0.71875 0.65625 0
0.6875 0.6875 0
0.71875 0.6875 0
0.71875 0.65625 0
0.75 0.65625 0
0.71875 0.6875 0
0.75 0.6875 0
0.625 0.6875 0
0.65625 0.6875 0
0.625 0.71875 0
0.65625 0.71875 0
0.65625 0.6875 0
0.6875 0.6875 0
0.65625 0.71875 0
0.6875 0.71875 0
0.625 0.71875 0
0.65625 0.71875 0
0.625 0.75 0
0.65625 0.75 0
0.65625 0.71875 0
0.6875 0.71875 0
0.65625 0.75 0
0.6875 0.75 0
0.6875 0.6875 0
0.71875 0.6875 0
0.6875 0.71875 0
0.71875 0.71875 0
0.71875 0.6875 0
0.75 0.6875 0
0.71875 0.71875 0
0.75 0.71875 0
0.6875 0.71875 0
0.71875 0.71875 0
0.6875 0.75 0
0.71875 0.75 0
0.71875 0.71875 0
0.75 0.71875 0
0.71875 0.75 0
0.75 0.75 0
0.75 0.5 0
0.78125 0.5 0
0.75 0.53125 0
0.78125 0.53125 0
0.78125 0.5 0
0.8125 0.5 0
0.78125 0.53125 0
0.8125 0.53125 0
0.75 0.53125 0
0.78125 0.53125 0
0.75 0.5625 0
0.78125 0.5625 0
0.78125 0.53125 0
0.8125 0.53125 0
0.78125 0.5625 0
0.8125 0.5625 0
0.8125 0.5 0
0.84375 0.5 0
0.8125 0.53125 0
0.84375 0.53125 0
0.84375 0.5 0
0.875 0.5 0
0.84375 0.53125 0
0.875 0.53125 0
0.8125 0.53125 0
0.84375 0.53125 0
0.8125 0.5625 0
0.84375 0.5625 0
0.84375 0.53125 0
0.875 0.53125 0
0.84375 0.5625 0
0.875 0.5625 0
0.75 0.5625 0
0.78125 0.5625 0
0.75 0.59375 0
0.78125 0.59375 0
0.78125 0.5625 0
0.8125 0.5625 0
0.78125 0.59375 0
0.8125 0.59375 0
0.75 0.59375 0
0.78125 0.59375 0
0.75 0.625 0
0.78125 0.625 0
0.78125 0.59375 0
0.8125 0.59375 0
0.78125 0.625 0
0.8125 0.625 0
0.8125 0.5625 0
0.84375 0.5625 0
0.8125 0.59375 0
0.84375 0.59375 0
0.84375 0.5625 0
0.875 0.5625 0
0.84375 0.59375 0
0.875 0.59375 0
0.8125 0.59375 0
0.84375 0.59375 0
0.8125 0.625 0
0.84375 0.625 0
0.84375 0.59375 0
0.875 0.59375 0
0.84375 0.625 0
0.875 0.625 0
0.875 0.5 0
0.90625 0.5 0
0.875 0.53125 0
0.90625 0.53125 0
0.90625 0.5 0
0.9375 0.5 0
0.90625 0.53125 0
0.9375 0.53125 0
0.875 0.53125 0
0.90625 0.53125 0
0.875 0.5625 0
0.90625 0.5625 0
0.90625 0.53125 0
0.9375 0.53125 0
0.90625 0.5625 0
0.9375 0.5625 0
0.9375 0.5 0
0.96875 0.5 0
0.9375 0.53125 0
0.96875 0.53125 0
0.96875 0.5 0
1 0.5 0
0.96875 0.53125 0
1 0.53125 0
0.9375 0.53125 0
0.96875 0.53125 0
0.9375 0.5625 0
0.96875 0.5625 0
0.96875 0.53125 0
1 0.53125 0
0.96875 0.5625 0
1 0.5625 0
0.875 0.5625 0
0.90625 0.5625 0
0.875 0.59375 0
0.90625 0.59375 0
0.90625 0.5625 0
0.9375 0.5625 0
0.90625 0.59375 0
0.9375 0.59375 0
0.875 0.59375 0
0.90625 0.59375 0
0.875 0.625 0
0.90625 0.625 0
0.90625 0.59375 0
0.9375 0.59375 0
0.90625 0.625 0
0.9375 0.625 0
0.9375 0.5625 0
0.96875 0.5625 0
0.9375 0.59375 0
0.96875 0.59375 0
0.96875 0.5625 0
1 0.5625 0
0.96875 0.59375 0
1 0.59375 0
0.9375 0.59375 0
0.96875 0.59375 0
0.9375 0.625 0
0.96875 0.625 0
0.96875 0.59375 0
1 0.59375 0
0.96875 0.625 0
1 0.625 0
0.75 0.625 0
0.78125 0.625 0
0.75 0.65625 0
0.78125 0.65625 0
0.78125 0.625 0
0.8125 0.625 0
0.78125 0.65625 0
0.8125 0.65625 0
0.75 0.65625 0
0.78125 0.65625 0
0.75 0.6875 0
0.78125 0.6875 0
0.78125 0.65625 0
0.8125 0.65625 0
0.78125 0.6875 0
0.8125 0.6875 0
0.8125 0.625 0
0.84375 0.625 0
0.8125 0.65625 0
0.84375 0.65625 0
0.84375 0.625 0
0.875 0.625 0
0.84375 0.65625 0
0.875 0.65625 0
0.8125 0.65625 0
0.84375 0.65625 0
0.8125 0.6875 0
0.84375 0.6875 0
0.84375 0.65625 0
0.875 0.65625 0
0.84375 0.6875 0
0.875 0.6875 0
0.75 0.6875 0
0.78125 0.6875 0
0.75 0.71875 0
0.78125 0.71875 0
0.78125 0.6875 0
0.8125 0.6875 0
0.78125 0.71875 0
0.8125 0.71875 0
0.75 0.71875 0
0.78125 0.71875 0
0.75 0.75 0
0.78125 0.75 0
0.78125 0.71875 0
0.8125 0.71875 0
0.78125 0.75 0
0.8125 0.75 0
0.8125 0.6875 0
0.84375 0.6875 0
0.8125 0.71875 0
0.84375 0.71875 0
0.84375 0.6875 0
0.875 0.6875 0
0.84375 0.71875 0
0.875 0.71875 0
0.8125 0.71875 0
0.84375 0.71875 0
0.8125 0.75 0
0.84375 0.75 0
0.84375 0.71875 0
0.875 0.71875 0
0.84375 0.75 0
0.875 0.75 0
0.875 0.625 0
0.90625 0.625 0
0.875 0.65625 0
0.90625 0.65625 0
0.90625 0.625 0
0.9375 0.625 0
0.90625 0.65625 0
0.9375 0.65625 0
0.875 0.65625 0
0.90625 0.65625 0
0.875 0.6875 0
0.90625 0.6875 0
0.90625 0.65625 0
0.9375 0.65625 0
0.90625 0.6875 0
0.9375 0.6875 0
0.9375 0.625 0
0.96875 0.625 0
0.9375 0.65625 0
0.96875 0.65625 0
0.96875 0.625 0
1 0.625 0
0.96875 0.65625 0
1 0.65625 0
0.9375 0.65625 0
0.96875 0.65625 0
0.9375 0.6875 0
0.96875 0.6875 0
0.96875 0.65625 0
1 0.65625 0
0.96875 0.6875 0
1 0.6875 0
0.875 0.6875 0
0.90625 0.6875 0
0.875 0.71875 0
0.90625 0.71875 0
0.90625 0.6875 0
0.9375 0.6875 0
0.90625 0.71875 0
0.9375 0.71875 0
0.875 0.71875 0
0.90625 0.71875 0
0.875 0.75 0
0.90625 0.75 0
0.90625 0.71875 0
0.9375 0.71875 0
0.90625 0.75 0
0.9375 0.75 0
0.9375 0.6875 0
0.96875 0.6875 0
0.9375 0.71875 0
0.96875 0.71875 0
0.96875 0.6875 0
1 0.6875 0
0.96875 0.71875 0
1 0.71875 0
0.9375 0.71875 0
0.96875 0.71875 0
0.9375 0.75 0
0.96875 0.75 0
0.96875 0.71875 0
1 0.71875 0
0.96875 0.75 0
1 0.75 0
0.5 0.75 0
0.53125 0.75 0
0.5 0.78125 0
0.53125 0.78125 0
0.53125 0.75 0
0.5625 0.75 0
0.53125 0.78125 0
0.5625 0.78125 0
0.5 0.78125 0
0.53125 0.78125 0
0.5 0.8125 0
0.53125 0.8125 0
0.53125 0.78125 0
0.5625 0.78125 0
0.53125 0.8125 0
0.5625 0.8125 0
0.5625 0.75 0
0.59375 0.75 0
0.5625 0.78125 0
0.59375 0.78125 0
0.59375 0.75 0
0.625 0.75 0
0.59375 0.78125 0
0.625 0.78125 0
0.5625 0.78125 0
0.59375 0.78125 0
0.5625 0.8125 0
0.59375 0.8125 0
0.59375 0.78125 0
0.625 0.78125 0
0.59375 0.8125 0
0.625 0.8125 0
0.5 0.8125 0
0.53125 0.8125 0
0.5 0.84375 0
0.53125 0.84375 0
0.53125 0.8125 0
0.5625 0.8125 0
0.53125 0.84375 0
0.5625 0.84375 0
0.5 0.84375 0
0.53125 0.84375 0
0.5 0.875 0
0.53125 0.875 0
0.53125 0.84375 0
0.5625 0.84375 0
0.53125 0.875 0
0.5625 0.875 0
0.5625 0.8125 0
0.59375 0.8125 0
0.5625 0.84375 0
0.59375 0.84375 0
0.59375 0.8125 0
0.625 0.8125 0
0.59375 0.84375 0
0.625 0.84375 0
0.5625 0.84375 0
0.59375 0.84375 0
0.5625 0.875 0
0.59375 0.875 0
0.59375 0.84375 0
0.625 0.84375 0
0.59375 0.875 0
0.625 0.875 0
0.625 0.75 0
0.65625 0.75 0
0.625 0.78125 0
0.65625 0.78125 0
0.65625 0.75 0
0.6875 0.75 0
0.65625 0.78125 0
0.6875 0.78125 0
0.625 0.78125 0
0.65625 0.78125 0
0.625 0.8125 0
0.65625 0.8125 0
0.65625 0.78125 0
0.6875 0.78125 0
0.65625 0.8125 0
0.6875 0.8125 0
0.6875 0.75 0
0.71875 0.75 0
0.6875 0.78125 0
0.71875 0.78125 0
0.71875 0.75 0
0.75 0.75 0
0.71875 0.78125 0
0.75 0.78125 0
0.6875 0.78125 0
0.71875 0.78125 0
0.6875 0.8125 0
0.71875 0.8125 0
0.71875 0.78125 0
0.75 0.78125 0
0.71875 0.8125 0
0.75 0.8125 0
0.625 0.8125 0
0.65625 0.8125 0
0.625 0.84375 0
0.65625 0.84375 0
0.65625 0.8125 0
0.6875 0.8125 0
0.65625 0.84375 0
0.6875 0.84375 0
0.625 0.84375 0
0.65625 0.84375 0
0.625 0.875 0
0.65625 0.875 0
0.65625 0.84375 0
0.6875 0.84375 0
0.65625 0.875 0
0.6875 0.875 0
0.6875 0.8125 0
0.71875 0.8125 0
0.6875 0.84375 0
[...]
POINT_DATA 10288
SCALARS x_dis double 1
LOOKUP_TABLE default
-3.91635e-05 -3.06057e-06 -0.000120001 -7.33459e-05 -3.06057e-06 3.01906e-05 -7.33459e-05 -2.95639e-05 -0.000120001 -7.33459e-05 -0.000193717 -0.000137368 -7.33459e-05 -2.95639e-05 -0.000137368 -8.41607e-05 -0.000193717 -0.000137368 -0.00025848 -0.000193711 -0.000137368 -8.41607e-05 -0.000193711 -0.000132312 -0.00025848 -0.000193711 -0.000312638 -0.000241205 -0.000193711 -0.000132312 -0.000241205 -0.000173001 -0.00046393 -0.000386916 -0.000517583 -0.000435862 -0.000386916 -0.000312638 -0.000435862 -0.000356134 -0.000517583 -0.000435862 -0.000556279 -0.000471395 -0.000435862 -0.000356134 -0.000471395 -0.000388086 -0.000312638 -0.000241205 -0.000356134 -0.000279229 -0.000241205 -0.000173001 -0.000279229 -0.000205583 -0.000356134 -0.000279229 -0.000388086 -0.000307282 -0.000279229 -0.000205583 -0.000307282 -0.000229669 0.000336937 0.000286209 0.000317534 0.000284556 0.000286209 0.000247793 0.000284556 0.000255932 0.000317534 0.000284556 0.000284401 0.000269672 0.000284556 0.000255932 0.000269672 0.000253337 0.000247793 0.0002171 0.000255932 0.000231787 0.0002171 0.000192057 0.000231787 0.000211651 0.000255932 0.000231787 0.000253337 0.000237961 0.000231787 0.000211651 0.000237961 0.000224456 0.000284401 0.000269672 0.000258358 0.000252584 0.000269672 0.000253337 0.000252584 0.000245961 0.000258358 0.000252584 0.000236847 0.000236736 0.000252584 0.000245961 0.000236736 0.000237244 0.000253337 0.000237961 0.000245961 0.000239032 0.000237961 0.000224456 0.000239032 0.00023258 0.000245961 0.000239032 0.000237244 0.000237614 0.000239032 0.00023258 0.000237614 0.000237886 0.00024727 0.000239282 0.000211877 0.000212004 0.000239282 0.000236847 0.000212004 0.0002155 0.000211877 0.000212004 0.000172862 0.000182156 0.000212004 0.0002155 0.000182156 0.000193247 0.000155905 0.00016442 9.25224e-05 0.000112457 0.00016442 0.000172862 0.000112457 0.000131485 9.25224e-05 0.000112457 3.01906e-05 6.09732e-05 0.000112457 0.000131485 6.09732e-05 9.02165e-05 0.000172862 0.000182156 0.000131485 0.000150501 0.000182156 0.000193247 0.000150501 0.000169881 0.000131485 0.000150501 9.02165e-05 0.000118495 0.000150501 0.000169881 0.000118495 0.000146143 0.000236847 0.000236736 0.0002155 0.000221408 0.000236736 0.000237244 0.000221408 0.000228224 0.0002155 0.000221408 0.000193247 0.000205771 0.000221408 0.000228224 0.000205771 0.000218929 0.000237244 0.000237614 0.000228224 0.000235085 0.000237614 0.000237886 0.000235085 0.000241627 0.000228224 0.000235085 0.000218929 0.000231985 0.000235085 0.000241627 0.000231985 0.000244487 0.000193247 0.000205771 0.000169881 0.00018961 0.000205771 0.000218929 0.00018961 0.00020931 0.000169881 0.00018961 0.000146143 0.000173206 0.00018961 0.00020931 0.000173206 0.000199519 0.000218929 0.000231985 0.00020931 0.000228507 0.000231985 0.000244487 0.000228507 0.000246796 0.00020931 0.000228507 0.000199519 0.000224798 0.000228507 0.000246796 0.000224798 0.000248721 0.000192057 0.000171571 0.000211651 0.000195057 0.000171571 0.000155019 0.000195057 0.000181631 0.000211651 0.000195057 0.000224456 0.000213085 0.000195057 0.000181631 0.000213085 0.000203851 0.000155019 0.000141993 0.000181631 0.000171074 0.000141993 0.000132178 0.000171074 0.000163131 0.000181631 0.000171074 0.000203851 0.000196669 0.000171074 0.000163131 0.000196669 0.000191421 0.000224456 0.000213085 0.00023258 0.000227052 0.000213085 0.000203851 0.000227052 0.000222657 0.00023258 0.000227052 0.000237886 0.000238284 0.000227052 0.000222657 0.000238284 0.00023899 0.000203851 0.000196669 0.000222657 0.000219465 0.000196669 0.000191421 0.000219465 0.000217479 0.000222657 0.000219465 0.00023899 0.000240116 0.000219465 0.000217479 0.000240116 0.000241722 0.000132178 0.000125266 0.000163131 0.000157563 0.000125266 0.000120898 0.000157563 0.000154126 0.000163131 0.000157563 0.000191421 0.000187981 0.000157563 0.000154126 0.000187981 0.000186212 0.000120898 0.000118641 0.000154126 0.000152559 0.000118641 0.00011805 0.000152559 0.00015248 0.000154126 0.000152559 0.000186212 0.000185933 0.000152559 0.00015248 0.000185933 0.000186824 0.000191421 0.000187981 0.000217479 0.00021667 0.000187981 0.000186212 0.00021667 0.00021698 0.000217479 0.00021667 0.000241722 0.000243835 0.00021667 0.00021698 0.000243835 0.000246447 0.000186212 0.000185933 0.00021698 0.00021829 0.000185933 0.000186824 0.00021829 0.000220327 0.00021698 0.00021829 0.000246447 0.000249493 0.00021829 0.000220327 0.000249493 0.000252795 0.000237886 0.000238284 0.000241627 0.000247788 0.000238284 0.00023899 0.000247788 0.000253616 0.000241627 0.000247788 0.000244487 0.000256207 0.000247788 0.000253616 0.000256207 0.000267058 0.00023899 0.000240116 0.000253616 0.000259173 0.000240116 0.000241722 0.000259173 0.000264519 0.000253616 0.000259173 0.000267058 0.000277028 0.000259173 0.000264519 0.000277028 0.000286134 0.000244487 0.000256207 0.000246796 0.000263889 0.000256207 0.000267058 0.000263889 0.000279615 0.000246796 0.000263889 0.000248721 0.000270995 0.000263889 0.000279615 0.000270995 0.000291407 0.000267058 0.000277028 0.000279615 0.000293893 0.000277028 0.000286134 0.000293893 0.000306695 0.000279615 0.000293893 0.000291407 0.00030983 0.000293893 0.000306695 0.00030983 0.000326194 0.000241722 0.000243835 0.000264519 0.000269693 0.000243835 0.000246447 0.000269693 0.000274718 0.000264519 0.000269693 0.000286134 0.000294406 0.000269693 0.000274718 0.000294406 0.000301873 0.000246447 0.000249493 0.000274718 0.000279573 0.000249493 0.000252795 0.000279573 0.000284186 0.000274718 0.000279573 0.000301873 0.000308554 0.000279573 0.000284186 0.000308554 0.000314465 0.000286134 0.000294406 0.000306695 0.000318024 0.000294406 0.000301873 0.000318024 0.000327903 0.000306695 0.000318024 0.000326194 0.000340474 0.000318024 0.000327903 0.000340474 0.000352681 0.000301873 0.000308554 0.000327903 0.000336377 0.000308554 0.000314465 0.000336377 0.000343523 0.000327903 0.000336377 0.000352681 0.000362868 0.000336377 0.000343523 0.000362868 0.000371153 3.01906e-05 6.09732e-05 -2.95639e-05 1.15709e-05 6.09732e-05 9.02165e-05 1.15709e-05 5.04144e-05 -2.95639e-05 1.15709e-05 -8.41607e-05 -3.39361e-05 1.15709e-05 5.04144e-05 -3.39361e-05 1.35516e-05 9.02165e-05 0.000118495 5.04144e-05 8.74488e-05 0.000118495 0.000146143 8.74488e-05 0.000122985 5.04144e-05 8.74488e-05 1.35516e-05 5.85733e-05 8.74488e-05 0.000122985 5.85733e-05 0.000101368 -8.41607e-05 -3.39361e-05 -0.000132312 -7.41642e-05 -3.39361e-05 1.35516e-05 -7.41642e-05 -1.9109e-05 -0.000132312 -7.41642e-05 -0.000173001 -0.000108173 -7.41642e-05 -1.9109e-05 -0.000108173 -4.66472e-05 1.35516e-05 5.85733e-05 -1.9109e-05 3.29865e-05 5.85733e-05 0.000101368 3.29865e-05 8.22286e-05 -1.9109e-05 3.29865e-05 -4.66472e-05 1.16032e-05 3.29865e-05 8.22286e-05 1.16032e-05 6.647e-05 0.000146143 0.000173206 0.000122985 0.000157145 0.000173206 0.000199519 0.000157145 0.000189891 0.000122985 0.000157145 0.000101368 0.000142104 0.000157145 0.000189891 0.000142104 0.00018086 0.000199519 0.000224798 0.000189891 0.000221061 0.000224798 0.000248721 0.000221061 0.000250395 0.000189891 0.000221061 0.00018086 0.000217564 0.000221061 0.000250395 0.000217564 0.000251967 0.000101368 0.000142104 8.22286e-05 0.000128796 0.000142104 0.00018086 0.000128796 0.000172916 8.22286e-05 0.000128796 6.647e-05 0.000117991 0.000128796 0.000172916 0.000117991 0.000166634 0.00018086 0.000217564 0.000172916 0.000214635 0.000217564 0.000251967 0.000214635 0.000253613 0.000172916 0.000214635 0.000166634 0.000212627 0.000214635 0.000253613 0.000212627 0.000255516 -0.000173001 -0.000108173 -0.000205583 -0.000135388 -0.000108173 -4.66472e-05 -0.000135388 -6.8626e-05 -0.000205583 -0.000135388 -0.000229669 -0.000155591 -0.000135388 -6.8626e-05 -0.000155591 -8.51115e-05 -4.66472e-05 1.16032e-05 -6.8626e-05 -5.1767e-06 1.16032e-05 6.647e-05 -5.1767e-06 5.47413e-05 -6.8626e-05 -5.1767e-06 -8.51115e-05 -1.78801e-05 -5.1767e-06 5.47413e-05 -1.78801e-05 4.63223e-05 6.647e-05 0.000117991 5.47413e-05 0.000110465 0.000117991 0.000166634 0.000110465 0.000162397 5.47413e-05 0.000110465 4.63223e-05 0.00010634 0.000110465 0.000162397 0.00010634 0.000159915 0.000166634 0.000212627 0.000162397 0.00021177 0.000212627 0.000255516 0.00021177 0.000257453 0.000162397 0.00021177 0.000159915 0.000210327 0.00021177 0.000257453 0.000210327 0.000259064 0.000248721 0.000270995 0.000250395 0.0002776 0.000270995 0.000291407 0.0002776 0.000302445 0.000250395 0.0002776 0.000251967 0.000283747 0.0002776 0.000302445 0.000283747 0.000312673 0.000291407 0.00030983 0.000302445 0.000324779 0.00030983 0.000326194 0.000324779 0.000344505 0.000302445 0.000324779 0.000312673 0.000338596 0.000324779 0.000344505 0.000338596 0.000361412 0.000251967 0.000283747 0.000253613 0.000289466 0.000283747 0.000312673 0.000289466 0.000321978 0.000253613 0.000289466 0.000255516 0.000294666 0.000289466 0.000321978 0.000294666 0.000330168 0.000312673 0.000338596 0.000321978 0.000351078 0.000338596 0.000361412 0.000351078 0.000376638 0.000321978 0.000351078 0.000330168 0.000361952 0.000351078 0.000376638 0.000361952 0.000389882 0.000326194 0.000340474 0.000344505 0.000361571 0.000340474 0.000352681 0.000361571 0.000375969 0.000344505 0.000361571 0.000361412 0.000381038 0.000361571 0.000375969 0.000381038 0.000397443 0.000352681 0.000362868 0.000375969 0.000387751 0.000362868 0.000371153 0.000387751 0.000397053 0.000375969 0.000387751 0.000397443 0.000410665 0.000387751 0.000397053 0.000410665 0.000420843 0.000361412 0.000381038 0.000376638 0.000398541 0.000381038 0.000397443 0.000398541 0.000416716 0.000376638 0.000398541 0.000389882 0.000413708 0.000398541 0.000416716 0.000413708 0.000433369 0.000397443 0.000410665 0.000416716 0.000431192 0.000410665 0.000420843 0.000431192 0.000442097 0.000416716 0.000431192 0.000433369 0.000448883 0.000431192 0.000442097 0.000448883 0.000460361 0.000255516 0.000294666 0.000257453 0.000299116 0.000294666 0.000330168 0.000299116 0.000336831 0.000257453 0.000299116 0.000259064 0.000301329 0.000299116 0.000336831 0.000301329 0.00034244 0.000330168 0.000361952 0.000336831 0.000371045 0.000361952 0.000389882 0.000371045 0.000400843 0.000336831 0.000371045 0.00034244 0.000378237 0.000371045 0.000400843 0.000378237 0.000409204 0.000259064 0.000301329 0.000256963 0.000306362 0.000301329 0.00034244 0.000306362 0.000347449 0.000256963 0.000306362 0.000275057 0.000313286 0.000306362 0.000347449 0.000313286 0.000349931 0.00034244 0.000378237 0.000347449 0.00038321 0.000378237 0.000409204 0.00038321 0.000414557 0.000347449 0.00038321 0.000349931 0.000385108 0.00038321 0.000414557 0.000385108 0.000416422 0.000389882 0.000413708 0.000400843 0.000426157 0.000413708 0.000433369 0.000426157 0.000446965 0.000400843 0.000426157 0.000409204 0.00043549 0.000426157 0.000446965 0.00043549 0.000457079 0.000433369 0.000448883 0.000446965 0.00046328 0.000448883 0.000460361 0.00046328 0.000475182 0.000446965 0.00046328 0.000457079 0.000473951 0.00046328 0.000475182 0.000473951 0.000486137 0.000409204 0.00043549 0.000414557 0.000441313 0.00043549 0.000457079 0.000441313 0.000463333 0.000414557 0.000441313 0.000416422 0.0004433 0.000441313 0.000463333 0.0004433 0.000465452 0.000457079 0.000473951 0.000463333 0.000480524 0.000473951 0.000486137 0.000480524 0.00049287 0.000463333 0.000480524 0.000465452 0.000482746 0.000480524 0.00049287 0.000482746 0.000495142 -0.000615493 -0.000547882 -0.000608518 -0.000541369 -0.000547882 -0.000482286 -0.000541369 -0.000476287 -0.000608518 -0.000541369 -0.000587682 -0.000521935 -0.000541369 -0.000476287 -0.000521935 -0.000458407 -0.000482286 -0.000419584 -0.000476287 -0.000414131 -0.000419584 -0.000360305 -0.000414131 -0.000355412 -0.000476287 -0.000414131 -0.000458407 -0.000397893 -0.000414131 -0.000355412 -0.000397893 -0.000340856 -0.000587682 -0.000521935 -0.00055324 -0.000489891 -0.000521935 -0.000458407 -0.000489891 -0.000428989 -0.00055324 -0.000489891 -0.000505619 -0.000445748 -0.000489891 -0.000428989 -0.000445748 -0.000388597 -0.000458407 -0.000397893 -0.000428989 -0.000371233 -0.000397893 -0.000340856 -0.000371233 -0.000317004 -0.000428989 -0.000371233 -0.000388597 -0.000334741 -0.000371233 -0.000317004 -0.000334741 -0.00028446 -0.000505619 -0.000445748 -0.00044541 -0.000390212 -0.000445748 -0.000388597 -0.000390212 -0.000337998 -0.00044541 -0.000390212 -0.000373398 -0.000324016 -0.000390212 -0.000337998 -0.000324016 -0.000278219 -0.000388597 -0.000334741 -0.000337998 -0.000289243 -0.000334741 -0.00028446 -0.000289243 -0.000244063 -0.000337998 -0.000289243 -0.000278219 -0.000235859 -0.000289243 -0.000244063 -0.000235859 -0.000196882 -0.000278219 -0.000235859 -0.000210942 -0.000175924 -0.000235859 -0.000196882 -0.000175924 -0.000144203 -0.000210942 -0.000175924 -0.000137074 -0.000110851 -0.000175924 -0.000144203 -0.000110851 -8.74882e-05 -0.000137074 -0.000110851 -5.88614e-05 -4.25891e-05 -0.000110851 -8.74882e-05 -4.25891e-05 -2.85115e-05 -5.88614e-05 -4.25891e-05 2.11466e-05 2.66628e-05 -4.25891e-05 -2.85115e-05 2.66628e-05 3.05917e-05 -0.000360305 -0.000304699 -0.000355412 -0.000300366 -0.000304699 -0.000252843 -0.000300366 -0.000249058 -0.000355412 -0.000300366 -0.000340856 -0.000287487 -0.000300366 -0.000249058 -0.000287487 -0.00023782 -0.000252843 -0.000204742 -0.000249058 -0.000201484 -0.000204742 -0.000160328 -0.000201484 -0.000157571 -0.000249058 -0.000201484 -0.00023782 -0.000191821 -0.000201484 -0.000157571 -0.000191821 -0.000149399 -0.000340856 -0.000287487 -0.000317004 -0.000266427 -0.000287487 -0.00023782 -0.000266427 -0.000219477 -0.000317004 -0.000266427 -0.00028446 -0.000237779 -0.000266427 -0.000219477 -0.000237779 -0.000194597 -0.00023782 -0.000191821 -0.000219477 -0.000176079 -0.000191821 -0.000149399 -0.000176079 -0.000136106 -0.000219477 -0.000176079 -0.000194597 -0.000154783 -0.000176079 -0.000136106 -0.000154783 -0.000118168 -0.000160328 -0.000119475 -0.000157571 -0.000117185 -0.000119475 -8.20241e-05 -0.000117185 -8.01674e-05 -0.000157571 -0.000117185 -0.000149399 -0.000110404 -0.000117185 -8.01674e-05 -0.000110404 -7.46728e-05 -8.20241e-05 -4.78327e-05 -8.01674e-05 -4.63732e-05 -4.78327e-05 -1.67773e-05 -4.63732e-05 -1.56783e-05 -8.01674e-05 -4.63732e-05 -7.46728e-05 -4.20572e-05 -4.63732e-05 -1.56783e-05 -4.20572e-05 -1.2431e-05 -0.000149399 -0.000110404 -0.000136106 -9.93909e-05 -0.000110404 -7.46728e-05 -9.93909e-05 -6.57623e-05 -0.000136106 -9.93909e-05 -0.000118168 -8.45643e-05 -9.93909e-05 -6.57623e-05 -8.45643e-05 -5.37944e-05 -7.46728e-05 -4.20572e-05 -6.57623e-05 -3.50686e-05 -4.20572e-05 -1.2431e-05 -3.50686e-05 -7.18127e-06 -6.57623e-05 -3.50686e-05 -5.37944e-05 -2.57041e-05 -3.50686e-05 -7.18127e-06 -2.57041e-05 -1.65012e-07 -0.00028446 -0.000237779 -0.000244063 -0.000202356 -0.000237779 -0.000194597 -0.000202356 -0.000163951 -0.000244063 -0.000202356 -0.000196882 -0.000161181 -0.000202356 -0.000163951 -0.000161181 -0.00012849 -0.000194597 -0.000154783 -0.000163951 -0.000128643 -0.000154783 -0.000118168 -0.000128643 -9.62227e-05 -0.000163951 -0.000128643 -0.00012849 -9.85311e-05 -0.000128643 -9.62227e-05 -9.85311e-05 -7.10561e-05 -0.000196882 -0.000161181 -0.000144203 -0.000115463 -0.000161181 -0.00012849 -0.000115463 -8.93426e-05 -0.000144203 -0.000115463 -8.74882e-05 -6.66247e-05 -0.000115463 -8.93426e-05 -6.66247e-05 -4.78281e-05 -0.00012849 -9.85311e-05 -8.93426e-05 -6.5482e-05 -9.85311e-05 -7.10561e-05 -6.5482e-05 -4.35873e-05 -8.93426e-05 -6.5482e-05 -4.78281e-05 -3.06825e-05 -6.5482e-05 -4.35873e-05 -3.06825e-05 -1.48581e-05 -0.000118168 -8.45643e-05 -9.62227e-05 -6.64859e-05 -8.45643e-05 -5.37944e-05 -6.64859e-05 -3.92495e-05 -9.62227e-05 -6.64859e-05 -7.10561e-05 -4.58432e-05 -6.64859e-05 -3.92495e-05 -4.58432e-05 -2.27121e-05 -5.37944e-05 -2.57041e-05 -3.92495e-05 -1.4361e-05 -2.57041e-05 -1.65012e-07 -1.4361e-05 8.30133e-06 -3.92495e-05 -1.4361e-05 -2.27121e-05 -1.52227e-06 -1.4361e-05 8.30133e-06 -1.52227e-06 1.78329e-05 -7.10561e-05 -4.58432e-05 -4.35873e-05 -2.34331e-05 -4.58432e-05 -2.27121e-05 -2.34331e-05 -4.85536e-06 -4.35873e-05 -2.34331e-05 -1.48581e-05 -1.48763e-07 -2.34331e-05 -4.85536e-06 -1.48763e-07 1.35757e-05 -2.27121e-05 -1.52227e-06 -4.85536e-06 1.22599e-05 -1.52227e-06 1.78329e-05 1.22599e-05 2.79904e-05 -4.85536e-06 1.22599e-05 1.35757e-05 2.63801e-05 1.22599e-05 2.79904e-05 2.63801e-05 3.8293e-05 -1.67773e-05 1.12463e-05 -1.56783e-05 1.20219e-05 1.12463e-05 3.6317e-05 1.20219e-05 3.68068e-05 -1.56783e-05 1.20219e-05 -1.2431e-05 1.43115e-05 1.20219e-05 3.68068e-05 1.43115e-05 3.82505e-05 3.6317e-05 5.84868e-05 3.68068e-05 5.87288e-05 5.84868e-05 7.77973e-05 5.87288e-05 7.78298e-05 3.68068e-05 5.87288e-05 3.82505e-05 5.94395e-05 5.87288e-05 7.78298e-05 5.94395e-05 7.79212e-05 -1.2431e-05 1.43115e-05 -7.18127e-06 1.80057e-05 1.43115e-05 3.82505e-05 1.80057e-05 4.05725e-05 -7.18127e-06 1.80057e-05 -1.65012e-07 2.29264e-05 1.80057e-05 4.05725e-05 2.29264e-05 4.3648e-05 3.82505e-05 5.94395e-05 4.05725e-05 6.05734e-05 5.94395e-05 7.79212e-05 6.05734e-05 7.80519e-05 4.05725e-05 6.05734e-05 4.3648e-05 6.20535e-05 6.05734e-05 7.80519e-05 6.20535e-05 7.81854e-05 7.77973e-05 9.43026e-05 7.78298e-05 9.4164e-05 9.43026e-05 0.000108094 9.4164e-05 0.000107822 7.78298e-05 9.4164e-05 7.79212e-05 9.37491e-05 9.4164e-05 0.000107822 9.37491e-05 0.00010701 0.000108094 0.000119329 0.000107822 0.000118957 0.000119329 0.000128256 0.000118957 0.000127816 0.000107822 0.000118957 0.00010701 0.000117852 0.000118957 0.000127816 0.000117852 0.000126509 7.79212e-05 9.37491e-05 7.80519e-05 9.30595e-05 9.37491e-05 0.00010701 9.30595e-05 0.000105678 7.80519e-05 9.30595e-05 7.81854e-05 9.20921e-05 9.30595e-05 0.000105678 9.20921e-05 0.000103846 0.00010701 0.000117852 0.000105678 0.000116041 0.000117852 0.000126509 0.000116041 0.000124367 0.000105678 0.000116041 0.000103846 0.000113564 0.000116041 0.000124367 0.000113564 0.000121436 -1.65012e-07 2.29264e-05 8.30133e-06 2.88335e-05 2.29264e-05 4.3648e-05 2.88335e-05 4.73068e-05 8.30133e-06 2.88335e-05 1.78329e-05 3.54335e-05 2.88335e-05 4.73068e-05 3.54335e-05 5.1337e-05 4.3648e-05 6.20535e-05 4.73068e-05 6.37708e-05 6.20535e-05 7.81854e-05 6.37708e-05 7.82651e-05 4.73068e-05 6.37708e-05 5.1337e-05 6.55847e-05 6.37708e-05 7.82651e-05 6.55847e-05 7.82099e-05 1.78329e-05 3.54335e-05 2.79904e-05 4.23887e-05 3.54335e-05 5.1337e-05 4.23887e-05 5.54904e-05 2.79904e-05 4.23887e-05 3.8293e-05 4.93257e-05 4.23887e-05 5.54904e-05 4.93257e-05 5.94866e-05 5.1337e-05 6.55847e-05 5.54904e-05 6.73235e-05 6.55847e-05 7.82099e-05 6.73235e-05 7.79126e-05 5.54904e-05 6.73235e-05 5.94866e-05 6.87867e-05 6.73235e-05 7.79126e-05 6.87867e-05 7.72388e-05 7.81854e-05 9.20921e-05 7.82651e-05 9.08321e-05 9.20921e-05 0.000103846 9.08321e-05 0.000101532 7.82651e-05 9.08321e-05 7.82099e-05 8.92469e-05 9.08321e-05 0.000101532 8.92469e-05 9.87401e-05 0.000103846 0.000113564 0.000101532 0.00011046 0.000113564 0.000121436 0.00011046 0.000117766 0.000101532 0.00011046 9.87401e-05 0.000106756 0.00011046 0.000117766 0.000106756 0.000113401 7.82099e-05 8.92469e-05 7.79126e-05 8.7281e-05 8.92469e-05 9.87401e-05 8.7281e-05 9.54541e-05 7.79126e-05 8.7281e-05 7.72388e-05 8.4853e-05 8.7281e-05 9.54541e-05 8.4853e-05 9.16335e-05 9.87401e-05 0.000106756 9.54541e-05 0.000102466 0.000106756 0.000113401 0.000102466 0.00010837 9.54541e-05 0.000102466 9.16335e-05 9.75783e-05 0.000102466 0.00010837 9.75783e-05 0.000102683 -8.74882e-05 -6.66247e-05 -2.85115e-05 -1.63043e-05 -6.66247e-05 -4.78281e-05 -1.63043e-05 -5.46694e-06 -2.85115e-05 -1.63043e-05 3.05917e-05 3.35326e-05 -1.63043e-05 -5.46694e-06 3.35326e-05 3.61709e-05 -4.78281e-05 -3.06825e-05 -5.46694e-06 4.53909e-06 -3.06825e-05 -1.48581e-05 4.53909e-06 1.39719e-05 -5.46694e-06 4.53909e-06 3.61709e-05 3.8668e-05 4.53909e-06 1.39719e-05 3.8668e-05 4.16307e-05 3.61709e-05 3.8668e-05 7.46183e-05 6.99656e-05 3.8668e-05 4.16307e-05 6.99656e-05 6.67976e-05 7.46183e-05 6.99656e-05 0.000108282 9.68952e-05 6.99656e-05 6.67976e-05 9.68952e-05 8.82567e-05 -1.48581e-05 -1.48763e-07 1.