# vtk DataFile Version 3.0
#This file was generated by the deal.II library on 2022/11/17 at 0:14:02
ASCII
DATASET UNSTRUCTURED_GRID

POINTS 4096 double
0 0.5 0
0.03125 0.5 0
0 0.53125 0
0.03125 0.53125 0
0.03125 0.5 0
0.0625 0.5 0
0.03125 0.53125 0
0.0625 0.53125 0
0 0.53125 0
0.03125 0.53125 0
0 0.5625 0
0.03125 0.5625 0
0.03125 0.53125 0
0.0625 0.53125 0
0.03125 0.5625 0
0.0625 0.5625 0
0.0625 0.5 0
0.09375 0.5 0
0.0625 0.53125 0
0.09375 0.53125 0
0.09375 0.5 0
0.125 0.5 0
0.09375 0.53125 0
0.125 0.53125 0
0.0625 0.53125 0
0.09375 0.53125 0
0.0625 0.5625 0
0.09375 0.5625 0
0.09375 0.53125 0
0.125 0.53125 0
0.09375 0.5625 0
0.125 0.5625 0
0 0.5625 0
0.03125 0.5625 0
0 0.59375 0
0.03125 0.59375 0
0.03125 0.5625 0
0.0625 0.5625 0
0.03125 0.59375 0
0.0625 0.59375 0
0 0.59375 0
0.03125 0.59375 0
0 0.625 0
0.03125 0.625 0
0.03125 0.59375 0
0.0625 0.59375 0
0.03125 0.625 0
0.0625 0.625 0
0.0625 0.5625 0
0.09375 0.5625 0
0.0625 0.59375 0
0.09375 0.59375 0
0.09375 0.5625 0
0.125 0.5625 0
0.09375 0.59375 0
0.125 0.59375 0
0.0625 0.59375 0
0.09375 0.59375 0
0.0625 0.625 0
0.09375 0.625 0
0.09375 0.59375 0
0.125 0.59375 0
0.09375 0.625 0
0.125 0.625 0
0.125 0.5 0
0.15625 0.5 0
0.125 0.53125 0
0.15625 0.53125 0
0.15625 0.5 0
0.1875 0.5 0
0.15625 0.53125 0
0.1875 0.53125 0
0.125 0.53125 0
0.15625 0.53125 0
0.125 0.5625 0
0.15625 0.5625 0
0.15625 0.53125 0
0.1875 0.53125 0
0.15625 0.5625 0
0.1875 0.5625 0
0.1875 0.5 0
0.21875 0.5 0
0.1875 0.53125 0
0.21875 0.53125 0
0.21875 0.5 0
0.25 0.5 0
0.21875 0.53125 0
0.25 0.53125 0
0.1875 0.53125 0
0.21875 0.53125 0
0.1875 0.5625 0
0.21875 0.5625 0
0.21875 0.53125 0
0.25 0.53125 0
0.21875 0.5625 0
0.25 0.5625 0
0.125 0.5625 0
0.15625 0.5625 0
0.125 0.59375 0
0.15625 0.59375 0
0.15625 0.5625 0
0.1875 0.5625 0
0.15625 0.59375 0
0.1875 0.59375 0
0.125 0.59375 0
0.15625 0.59375 0
0.125 0.625 0
0.15625 0.625 0
0.15625 0.59375 0
0.1875 0.59375 0
0.15625 0.625 0
0.1875 0.625 0
0.1875 0.5625 0
0.21875 0.5625 0
0.1875 0.59375 0
0.21875 0.59375 0
0.21875 0.5625 0
0.25 0.5625 0
0.21875 0.59375 0
0.25 0.59375 0
0.1875 0.59375 0
0.21875 0.59375 0
0.1875 0.625 0
0.21875 0.625 0
0.21875 0.59375 0
0.25 0.59375 0
0.21875 0.625 0
0.25 0.625 0
0 0.625 0
0.03125 0.625 0
0 0.65625 0
0.03125 0.65625 0
0.03125 0.625 0
0.0625 0.625 0
0.03125 0.65625 0
0.0625 0.65625 0
0 0.65625 0
0.03125 0.65625 0
0 0.6875 0
0.03125 0.6875 0
0.03125 0.65625 0
0.0625 0.65625 0
0.03125 0.6875 0
0.0625 0.6875 0
0.0625 0.625 0
0.09375 0.625 0
0.0625 0.65625 0
0.09375 0.65625 0
0.09375 0.625 0
0.125 0.625 0
0.09375 0.65625 0
0.125 0.65625 0
0.0625 0.65625 0
0.09375 0.65625 0
0.0625 0.6875 0
0.09375 0.6875 0
0.09375 0.65625 0
0.125 0.65625 0
0.09375 0.6875 0
0.125 0.6875 0
0 0.6875 0
0.03125 0.6875 0
0 0.71875 0
0.03125 0.71875 0
0.03125 0.6875 0
0.0625 0.6875 0
0.03125 0.71875 0
0.0625 0.71875 0
0 0.71875 0
0.03125 0.71875 0
0 0.75 0
0.03125 0.75 0
0.03125 0.71875 0
0.0625 0.71875 0
0.03125 0.75 0
0.0625 0.75 0
0.0625 0.6875 0
0.09375 0.6875 0
0.0625 0.71875 0
0.09375 0.71875 0
0.09375 0.6875 0
0.125 0.6875 0
0.09375 0.71875 0
0.125 0.71875 0
0.0625 0.71875 0
0.09375 0.71875 0
0.0625 0.75 0
0.09375 0.75 0
0.09375 0.71875 0
0.125 0.71875 0
0.09375 0.75 0
0.125 0.75 0
0.125 0.625 0
0.15625 0.625 0
0.125 0.65625 0
0.15625 0.65625 0
0.15625 0.625 0
0.1875 0.625 0
0.15625 0.65625 0
0.1875 0.65625 0
0.125 0.65625 0
0.15625 0.65625 0
0.125 0.6875 0
0.15625 0.6875 0
0.15625 0.65625 0
0.1875 0.65625 0
0.15625 0.6875 0
0.1875 0.6875 0
0.1875 0.625 0
0.21875 0.625 0
0.1875 0.65625 0
0.21875 0.65625 0
0.21875 0.625 0
0.25 0.625 0
0.21875 0.65625 0
0.25 0.65625 0
0.1875 0.65625 0
0.21875 0.65625 0
0.1875 0.6875 0
0.21875 0.6875 0
0.21875 0.65625 0
0.25 0.65625 0
0.21875 0.6875 0
0.25 0.6875 0
0.125 0.6875 0
0.15625 0.6875 0
0.125 0.71875 0
0.15625 0.71875 0
0.15625 0.6875 0
0.1875 0.6875 0
0.15625 0.71875 0
0.1875 0.71875 0
0.125 0.71875 0
0.15625 0.71875 0
0.125 0.75 0
0.15625 0.75 0
0.15625 0.71875 0
0.1875 0.71875 0
0.15625 0.75 0
0.1875 0.75 0
0.1875 0.6875 0
0.21875 0.6875 0
0.1875 0.71875 0
0.21875 0.71875 0
0.21875 0.6875 0
0.25 0.6875 0
0.21875 0.71875 0
0.25 0.71875 0
0.1875 0.71875 0
0.21875 0.71875 0
0.1875 0.75 0
0.21875 0.75 0
0.21875 0.71875 0
0.25 0.71875 0
0.21875 0.75 0
0.25 0.75 0
0.25 0.5 0
0.28125 0.5 0
0.25 0.53125 0
0.28125 0.53125 0
0.28125 0.5 0
0.3125 0.5 0
0.28125 0.53125 0
0.3125 0.53125 0
0.25 0.53125 0
0.28125 0.53125 0
0.25 0.5625 0
0.28125 0.5625 0
0.28125 0.53125 0
0.3125 0.53125 0
0.28125 0.5625 0
0.3125 0.5625 0
0.3125 0.5 0
0.34375 0.5 0
0.3125 0.53125 0
0.34375 0.53125 0
0.34375 0.5 0
0.375 0.5 0
0.34375 0.53125 0
0.375 0.53125 0
0.3125 0.53125 0
0.34375 0.53125 0
0.3125 0.5625 0
0.34375 0.5625 0
0.34375 0.53125 0
0.375 0.53125 0
0.34375 0.5625 0
0.375 0.5625 0
0.25 0.5625 0
0.28125 0.5625 0
0.25 0.59375 0
0.28125 0.59375 0
0.28125 0.5625 0
0.3125 0.5625 0
0.28125 0.59375 0
0.3125 0.59375 0
0.25 0.59375 0
0.28125 0.59375 0
0.25 0.625 0
0.28125 0.625 0
0.28125 0.59375 0
0.3125 0.59375 0
0.28125 0.625 0
0.3125 0.625 0
0.3125 0.5625 0
0.34375 0.5625 0
0.3125 0.59375 0
0.34375 0.59375 0
0.34375 0.5625 0
0.375 0.5625 0
0.34375 0.59375 0
0.375 0.59375 0
0.3125 0.59375 0
0.34375 0.59375 0
0.3125 0.625 0
0.34375 0.625 0
0.34375 0.59375 0
0.375 0.59375 0
0.34375 0.625 0
0.375 0.625 0
0.375 0.5 0
0.40625 0.5 0
0.375 0.53125 0
0.40625 0.53125 0
0.40625 0.5 0
0.4375 0.5 0
0.40625 0.53125 0
0.4375 0.53125 0
0.375 0.53125 0
0.40625 0.53125 0
0.375 0.5625 0
0.40625 0.5625 0
0.40625 0.53125 0
0.4375 0.53125 0
0.40625 0.5625 0
0.4375 0.5625 0
0.4375 0.5 0
0.46875 0.5 0
0.4375 0.53125 0
0.46875 0.53125 0
0.46875 0.5 0
0.5 0.5 0
0.46875 0.53125 0
0.5 0.53125 0
0.4375 0.53125 0
0.46875 0.53125 0
0.4375 0.5625 0
0.46875 0.5625 0
0.46875 0.53125 0
0.5 0.53125 0
0.46875 0.5625 0
0.5 0.5625 0
0.375 0.5625 0
0.40625 0.5625 0
0.375 0.59375 0
0.40625 0.59375 0
0.40625 0.5625 0
0.4375 0.5625 0
0.40625 0.59375 0
0.4375 0.59375 0
0.375 0.59375 0
0.40625 0.59375 0
0.375 0.625 0
0.40625 0.625 0
0.40625 0.59375 0
0.4375 0.59375 0
0.40625 0.625 0
0.4375 0.625 0
0.4375 0.5625 0
0.46875 0.5625 0
0.4375 0.59375 0
0.46875 0.59375 0
0.46875 0.5625 0
0.5 0.5625 0
0.46875 0.59375 0
0.5 0.59375 0
0.4375 0.59375 0
0.46875 0.59375 0
0.4375 0.625 0
0.46875 0.625 0
0.46875 0.59375 0
0.5 0.59375 0
0.46875 0.625 0
0.5 0.625 0
0.25 0.625 0
0.28125 0.625 0
0.25 0.65625 0
0.28125 0.65625 0
0.28125 0.625 0
0.3125 0.625 0
0.28125 0.65625 0
0.3125 0.65625 0
0.25 0.65625 0
0.28125 0.65625 0
0.25 0.6875 0
0.28125 0.6875 0
0.28125 0.65625 0
0.3125 0.65625 0
0.28125 0.6875 0
0.3125 0.6875 0
0.3125 0.625 0
0.34375 0.625 0
0.3125 0.65625 0
0.34375 0.65625 0
0.34375 0.625 0
0.375 0.625 0
0.34375 0.65625 0
0.375 0.65625 0
0.3125 0.65625 0
0.34375 0.65625 0
0.3125 0.6875 0
0.34375 0.6875 0
0.34375 0.65625 0
0.375 0.65625 0
0.34375 0.6875 0
0.375 0.6875 0
0.25 0.6875 0
0.28125 0.6875 0
0.25 0.71875 0
0.28125 0.71875 0
0.28125 0.6875 0
0.3125 0.6875 0
0.28125 0.71875 0
0.3125 0.71875 0
0.25 0.71875 0
0.28125 0.71875 0
0.25 0.75 0
0.28125 0.75 0
0.28125 0.71875 0
0.3125 0.71875 0
0.28125 0.75 0
0.3125 0.75 0
0.3125 0.6875 0
0.34375 0.6875 0
0.3125 0.71875 0
0.34375 0.71875 0
0.34375 0.6875 0
0.375 0.6875 0
0.34375 0.71875 0
0.375 0.71875 0
0.3125 0.71875 0
0.34375 0.71875 0
0.3125 0.75 0
0.34375 0.75 0
0.34375 0.71875 0
0.375 0.71875 0
0.34375 0.75 0
0.375 0.75 0
0.375 0.625 0
0.40625 0.625 0
0.375 0.65625 0
0.40625 0.65625 0
0.40625 0.625 0
0.4375 0.625 0
0.40625 0.65625 0
0.4375 0.65625 0
0.375 0.65625 0
0.40625 0.65625 0
0.375 0.6875 0
0.40625 0.6875 0
0.40625 0.65625 0
0.4375 0.65625 0
0.40625 0.6875 0
0.4375 0.6875 0
0.4375 0.625 0
0.46875 0.625 0
0.4375 0.65625 0
0.46875 0.65625 0
0.46875 0.625 0
0.5 0.625 0
0.46875 0.65625 0
0.5 0.65625 0
0.4375 0.65625 0
0.46875 0.65625 0
0.4375 0.6875 0
0.46875 0.6875 0
0.46875 0.65625 0
0.5 0.65625 0
0.46875 0.6875 0
0.5 0.6875 0
0.375 0.6875 0
0.40625 0.6875 0
0.375 0.71875 0
0.40625 0.71875 0
0.40625 0.6875 0
0.4375 0.6875 0
0.40625 0.71875 0
0.4375 0.71875 0
0.375 0.71875 0
0.40625 0.71875 0
0.375 0.75 0
0.40625 0.75 0
0.40625 0.71875 0
0.4375 0.71875 0
0.40625 0.75 0
0.4375 0.75 0
0.4375 0.6875 0
0.46875 0.6875 0
0.4375 0.71875 0
0.46875 0.71875 0
0.46875 0.6875 0
0.5 0.6875 0
0.46875 0.71875 0
0.5 0.71875 0
0.4375 0.71875 0
0.46875 0.71875 0
0.4375 0.75 0
0.46875 0.75 0
0.46875 0.71875 0
0.5 0.71875 0
0.46875 0.75 0
0.5 0.75 0
0 0.75 0
0.03125 0.75 0
0 0.78125 0
0.03125 0.78125 0
0.03125 0.75 0
0.0625 0.75 0
0.03125 0.78125 0
0.0625 0.78125 0
0 0.78125 0
0.03125 0.78125 0
0 0.8125 0
0.03125 0.8125 0
0.03125 0.78125 0
0.0625 0.78125 0
0.03125 0.8125 0
0.0625 0.8125 0
0.0625 0.75 0
0.09375 0.75 0
0.0625 0.78125 0
0.09375 0.78125 0
0.09375 0.75 0
0.125 0.75 0
0.09375 0.78125 0
0.125 0.78125 0
0.0625 0.78125 0
0.09375 0.78125 0
0.0625 0.8125 0
0.09375 0.8125 0
0.09375 0.78125 0
0.125 0.78125 0
0.09375 0.8125 0
0.125 0.8125 0
0 0.8125 0
0.03125 0.8125 0
0 0.84375 0
0.03125 0.84375 0
0.03125 0.8125 0
0.0625 0.8125 0
0.03125 0.84375 0
0.0625 0.84375 0
0 0.84375 0
0.03125 0.84375 0
0 0.875 0
0.03125 0.875 0
0.03125 0.84375 0
0.0625 0.84375 0
0.03125 0.875 0
0.0625 0.875 0
0.0625 0.8125 0
0.09375 0.8125 0
0.0625 0.84375 0
0.09375 0.84375 0
0.09375 0.8125 0
0.125 0.8125 0
0.09375 0.84375 0
0.125 0.84375 0
0.0625 0.84375 0
0.09375 0.84375 0
0.0625 0.875 0
0.09375 0.875 0
0.09375 0.84375 0
0.125 0.84375 0
0.09375 0.875 0
0.125 0.875 0
0.125 0.75 0
0.15625 0.75 0
0.125 0.78125 0
0.15625 0.78125 0
0.15625 0.75 0
0.1875 0.75 0
0.15625 0.78125 0
0.1875 0.78125 0
0.125 0.78125 0
0.15625 0.78125 0
0.125 0.8125 0
0.15625 0.8125 0
0.15625 0.78125 0
0.1875 0.78125 0
0.15625 0.8125 0
0.1875 0.8125 0
0.1875 0.75 0
0.21875 0.75 0
0.1875 0.78125 0
0.21875 0.78125 0
0.21875 0.75 0
0.25 0.75 0
0.21875 0.78125 0
0.25 0.78125 0
0.1875 0.78125 0
0.21875 0.78125 0
0.1875 0.8125 0
0.21875 0.8125 0
0.21875 0.78125 0
0.25 0.78125 0
0.21875 0.8125 0
0.25 0.8125 0
0.125 0.8125 0
0.15625 0.8125 0
0.125 0.84375 0
0.15625 0.84375 0
0.15625 0.8125 0
[...]
POINT_DATA 4096
SCALARS x_dis double 1
LOOKUP_TABLE default
0.000655992 0.000626948 0.000643112 0.000614632 0.000626948 0.000596877 0.000614632 0.000585213 0.000643112 0.000614632 0.00062561 0.000597335 0.000614632 0.000585213 0.000597335 0.000568214 0.000596877 0.000566741 0.000585213 0.000555716 0.000566741 0.000537209 0.000555716 0.000526738 0.000585213 0.000555716 0.000568214 0.000538957 0.000555716 0.000526738 0.000538957 0.00051004 0.00062561 0.000597335 0.000604115 0.000575724 0.000597335 0.000568214 0.000575724 0.000546584 0.000604115 0.000575724 0.000579429 0.000550654 0.000575724 0.000546584 0.000550654 0.000521229 0.000568214 0.000538957 0.000546584 0.000517212 0.000538957 0.00051004 0.000517212 0.000487935 0.000546584 0.000517212 0.000521229 0.000491456 0.000517212 0.000487935 0.000491456 0.000461496 0.000537209 0.000508753 0.000526738 0.00049869 0.000508753 0.000481715 0.00049869 0.000471869 0.000526738 0.00049869 0.00051004 0.000481776 0.00049869 0.000471869 0.000481776 0.000454363 0.000481715 0.000456376 0.000471869 0.000446502 0.000456376 0.000432999 0.000446502 0.000422793 0.000471869 0.000446502 0.000454363 0.000427917 0.000446502 0.000422793 0.000427917 0.000402492 0.00051004 0.000481776 0.000487935 0.000458938 0.000481776 0.000454363 0.000458938 0.000430295 0.000487935 0.000458938 0.000461496 0.000431398 0.000458938 0.000430295 0.000431398 0.000401114 0.000454363 0.000427917 0.000430295 0.000401986 0.000427917 0.000402492 0.000401986 0.000373892 0.000430295 0.000401986 0.000401114 0.000370496 0.000401986 0.000373892 0.000370496 0.000339292 0.000579429 0.000550654 0.00055247 0.000523106 0.000550654 0.000521229 0.000523106 0.000493192 0.00055247 0.000523106 0.000524217 0.000494125 0.000523106 0.000493192 0.000494125 0.000463579 0.000521229 0.000491456 0.000493192 0.000462808 0.000491456 0.000461496 0.000462808 0.000431951 0.000493192 0.000462808 0.000463579 0.00043245 0.000462808 0.000431951 0.00043245 0.000400584 0.000524217 0.000494125 0.000495654 0.000464756 0.000494125 0.000463579 0.000464756 0.000433495 0.000495654 0.000464756 0.000467716 0.000435991 0.000464756 0.000433495 0.000435991 0.000403983 0.000463579 0.00043245 0.000433495 0.000401555 0.00043245 0.000400584 0.000401555 0.00036865 0.000433495 0.000401555 0.000403983 0.00037122 0.000401555 0.00036865 0.00037122 0.000337309 0.000461496 0.000431398 0.000431951 0.000400542 0.000431398 0.000401114 0.000400542 0.000368429 0.000431951 0.000400542 0.000400584 0.000367792 0.000400542 0.000368429 0.000367792 0.000333848 0.000401114 0.000370496 0.000368429 0.000335378 0.000370496 0.000339292 0.000335378 0.000301067 0.000368429 0.000335378 0.000333848 0.00029848 0.000335378 0.000301067 0.00029848 0.000261363 0.000400584 0.000367792 0.00036865 0.000334508 0.000367792 0.000333848 0.000334508 0.00029886 0.00036865 0.000334508 0.000337309 0.000301917 0.000334508 0.00029886 0.000301917 0.000264759 0.000333848 0.00029848 0.00029886 0.000261432 0.00029848 0.000261363 0.000261432 0.000221953 0.00029886 0.000261432 0.000264759 0.000225591 0.000261432 0.000221953 0.000225591 0.000184217 0.000432999 0.000411893 0.000422793 0.000400957 0.000411893 0.000393466 0.000400957 0.000381245 0.000422793 0.000400957 0.000402492 0.00037808 0.000400957 0.000381245 0.00037808 0.00035457 0.000393466 0.000378313 0.000381245 0.000363952 0.000378313 0.000367357 0.000363952 0.000349383 0.000381245 0.000363952 0.00035457 0.000331636 0.000363952 0.000349383 0.000331636 0.000308463 0.000402492 0.00037808 0.000373892 0.000345768 0.00037808 0.00035457 0.000345768 0.000317167 0.000373892 0.000345768 0.000339292 0.000307101 0.000345768 0.000317167 0.000307101 0.00027332 0.00035457 0.000331636 0.000317167 0.000287297 0.000331636 0.000308463 0.000287297 0.000254762 0.000317167 0.000287297 0.00027332 0.000237058 0.000287297 0.000254762 0.000237058 0.000197081 0.000367357 0.000362219 0.000349383 0.000337614 0.000362219 0.000366048 0.000337614 0.000327655 0.000349383 0.000337614 0.000308463 0.000283083 0.000337614 0.000327655 0.000283083 0.000250705 0.000366048 0.000390127 0.000327655 0.000310348 0.000390127 0.000438399 0.000310348 0.00024664 0.000327655 0.000310348 0.000250705 0.000200931 0.000310348 0.00024664 0.000200931 0.000142201 0.000308463 0.000283083 0.000254762 0.000217208 0.000283083 0.000250705 0.000217208 0.000171219 0.000254762 0.000217208 0.000197081 0.000151949 0.000217208 0.000171219 0.000151949 0.000101147 0.000250705 0.000200931 0.000171219 0.000116876 0.000200931 0.000142201 0.000116876 6.17184e-05 0.000171219 0.000116876 0.000101147 4.6783e-05 0.000116876 6.17184e-05 4.6783e-05 -5.13879e-06 0.000339292 0.000307101 0.000301067 0.000265059 0.000307101 0.00027332 0.000265059 0.000226787 0.000301067 0.000265059 0.000261363 0.000222122 0.000265059 0.000226787 0.000222122 0.00018035 0.00027332 0.000237058 0.000226787 0.00018556 0.000237058 0.000197081 0.00018556 0.000140669 0.000226787 0.00018556 0.00018035 0.000135673 0.00018556 0.000140669 0.000135673 8.79187e-05 0.000261363 0.000222122 0.000221953 0.000180162 0.000222122 0.00018035 0.000180162 0.000135857 0.000221953 0.000180162 0.000184217 0.000140513 0.000180162 0.000135857 0.000140513 9.44656e-05 0.00018035 0.000135673 0.000135857 8.89664e-05 0.000135673 8.79187e-05 8.89664e-05 3.97009e-05 0.000135857 8.89664e-05 9.44656e-05 4.62452e-05 8.89664e-05 3.97009e-05 4.62452e-05 -3.69645e-06 0.000197081 0.000151949 0.000140669 9.17765e-05 0.000151949 0.000101147 9.17765e-05 3.95865e-05 0.000140669 9.17765e-05 8.79187e-05 3.74072e-05 9.17765e-05 3.95865e-05 3.74072e-05 -1.46694e-05 0.000101147 4.6783e-05 3.95865e-05 -1.33836e-05 4.6783e-05 -5.13879e-06 -1.33836e-05 -6.28838e-05 3.95865e-05 -1.33836e-05 -1.46694e-05 -6.60374e-05 -1.33836e-05 -6.28838e-05 -6.60374e-05 -0.000113599 8.79187e-05 3.74072e-05 3.97009e-05 -1.12673e-05 3.74072e-05 -1.46694e-05 -1.12673e-05 -6.26369e-05 3.97009e-05 -1.12673e-05 -3.69645e-06 -5.4527e-05 -1.12673e-05 -6.26369e-05 -5.4527e-05 -0.000104976 -1.46694e-05 -6.60374e-05 -6.26369e-05 -0.000112461 -6.60374e-05 -0.000113599 -0.000112461 -0.000158406 -6.26369e-05 -0.000112461 -0.000104976 -0.00015339 -0.000112461 -0.000158406 -0.00015339 -0.000197934 0.000467716 0.000435991 0.000441255 0.000408728 0.000435991 0.000403983 0.000408728 0.000375985 0.000441255 0.000408728 0.000417011 0.000383742 0.000408728 0.000375985 0.000383742 0.000350309 0.000403983 0.00037122 0.000375985 0.000342427 0.00037122 0.000337309 0.000342427 0.000307583 0.000375985 0.000342427 0.000350309 0.000316018 0.000342427 0.000307583 0.000316018 0.000280337 0.000417011 0.000383742 0.000395599 0.000361677 0.000383742 0.000350309 0.000361677 0.000327624 0.000395599 0.000361677 0.000377506 0.000343036 0.000361677 0.000327624 0.000343036 0.000308454 0.000350309 0.000316018 0.000327624 0.000292681 0.000316018 0.000280337 0.000292681 0.000256275 0.000327624 0.000292681 0.000308454 0.000272956 0.000292681 0.000256275 0.000272956 0.000235948 0.000337309 0.000301917 0.000307583 0.000271078 0.000301917 0.000264759 0.000271078 0.000232631 0.000307583 0.000271078 0.000280337 0.000242872 0.000271078 0.000232631 0.000242872 0.000203352 0.000264759 0.000225591 0.000232631 0.00019204 0.000225591 0.000184217 0.00019204 0.000149198 0.000232631 0.00019204 0.000203352 0.000161627 0.00019204 0.000149198 0.000161627 0.000117668 0.000280337 0.000242872 0.000256275 0.000218004 0.000242872 0.000203352 0.000218004 0.000177614 0.000256275 0.000218004 0.000235948 0.000197021 0.000218004 0.000177614 0.000197021 0.000155944 0.000203352 0.000161627 0.000177614 0.000135 0.000161627 0.000117668 0.000135 9.02059e-05 0.000177614 0.000135 0.000155944 0.000112651 0.000135 9.02059e-05 0.000112651 6.72401e-05 0.000377506 0.000343036 0.000363099 0.000328197 0.000343036 0.000308454 0.000328197 0.000293191 0.000363099 0.000328197 0.00035264 0.000317428 0.000328197 0.000293191 0.000317428 0.000282114 0.000308454 0.000272956 0.000293191 0.000257251 0.000272956 0.000235948 0.000257251 0.000219766 0.000293191 0.000257251 0.000282114 0.00024585 0.000257251 0.000219766 0.00024585 0.000208023 0.00035264 0.000317428 0.000346301 0.000310903 0.000317428 0.000282114 0.000310903 0.0002754 0.000346301 0.000310903 0.000344178 0.000308718 0.000310903 0.0002754 0.000308718 0.000273152 0.000282114 0.00024585 0.0002754 0.000238941 0.00024585 0.000208023 0.000238941 0.000200907 0.0002754 0.000238941 0.000273152 0.000236627 0.000238941 0.000200907 0.000236627 0.000198523 0.000235948 0.000197021 0.000219766 0.000180333 0.000197021 0.000155944 0.000180333 0.000138735 0.000219766 0.000180333 0.000208023 0.000168229 0.000180333 0.000138735 0.000168229 0.000126267 0.000155944 0.000112651 0.000138735 9.49401e-05 0.000112651 6.72401e-05 9.49401e-05 4.90883e-05 0.000138735 9.49401e-05 0.000126267 8.2126e-05 9.49401e-05 4.90883e-05 8.2126e-05 3.59773e-05 0.000208023 0.000168229 0.000200907 0.000160897 0.000168229 0.000126267 0.000160897 0.000118719 0.000200907 0.000160897 0.000198523 0.000158442 0.000160897 0.000118719 0.000158442 0.000116193 0.000126267 8.2126e-05 0.000118719 7.43766e-05 8.2126e-05 3.59773e-05 7.43766e-05 2.80567e-05 0.000118719 7.43766e-05 0.000116193 7.17842e-05 7.43766e-05 2.80567e-05 7.17842e-05 2.5408e-05 0.000184217 0.000140513 0.000149198 0.000104103 0.000140513 9.44656e-05 0.000104103 5.69032e-05 0.000149198 0.000104103 0.000117668 7.1584e-05 0.000104103 5.69032e-05 7.1584e-05 2.36429e-05 9.44656e-05 4.62452e-05 5.69032e-05 7.93936e-06 4.62452e-05 -3.69645e-06 7.93936e-06 -4.21937e-05 5.69032e-05 7.93936e-06 2.36429e-05 -2.56969e-05 7.93936e-06 -4.21937e-05 -2.56969e-05 -7.57596e-05 0.000117668 7.1584e-05 9.02059e-05 4.3425e-05 7.1584e-05 2.36429e-05 4.3425e-05 -4.9837e-06 9.02059e-05 4.3425e-05 6.72401e-05 1.99729e-05 4.3425e-05 -4.9837e-06 1.99729e-05 -2.87274e-05 2.36429e-05 -2.56969e-05 -4.9837e-06 -5.44841e-05 -2.56969e-05 -7.57596e-05 -5.44841e-05 -0.000104356 -4.9837e-06 -5.44841e-05 -2.87274e-05 -7.82741e-05 -5.44841e-05 -0.000104356 -7.82741e-05 -0.000127922 -3.69645e-06 -5.4527e-05 -4.21937e-05 -9.26032e-05 -5.4527e-05 -0.000104976 -9.26032e-05 -0.000142096 -4.21937e-05 -9.26032e-05 -7.57596e-05 -0.000125641 -9.26032e-05 -0.000142096 -0.000125641 -0.000174227 -0.000104976 -0.00015339 -0.000142096 -0.000189247 -0.00015339 -0.000197934 -0.000189247 -0.000232557 -0.000142096 -0.000189247 -0.000174227 -0.00022027 -0.000189247 -0.000232557 -0.00022027 -0.000262492 -7.57596e-05 -0.000125641 -0.000104356 -0.000153703 -0.000125641 -0.000174227 -0.000153703 -0.000201485 -0.000104356 -0.000153703 -0.000127922 -0.000176792 -0.000153703 -0.000201485 -0.000176792 -0.000223901 -0.000174227 -0.00022027 -0.000201485 -0.000246578 -0.00022027 -0.000262492 -0.000246578 -0.00028785 -0.000201485 -0.000246578 -0.000223901 -0.000268205 -0.000246578 -0.00028785 -0.000268205 -0.000308666 6.72401e-05 1.99729e-05 4.90883e-05 1.48776e-06 1.99729e-05 -2.87274e-05 1.48776e-06 -4.73938e-05 4.90883e-05 1.48776e-06 3.59773e-05 -1.18408e-05 1.48776e-06 -4.73938e-05 -1.18408e-05 -6.08329e-05 -2.87274e-05 -7.82741e-05 -4.73938e-05 -9.69358e-05 -7.82741e-05 -0.000127922 -9.69358e-05 -0.000146383 -4.73938e-05 -9.69358e-05 -6.08329e-05 -0.00011036 -9.69358e-05 -0.000146383 -0.00011036 -0.000159658 3.59773e-05 -1.18408e-05 2.80567e-05 -1.98855e-05 -1.18408e-05 -6.08329e-05 -1.98855e-05 -6.89401e-05 2.80567e-05 -1.98855e-05 2.5408e-05 -2.25748e-05 -1.98855e-05 -6.89401e-05 -2.25748e-05 -7.16496e-05 -6.08329e-05 -0.00011036 -6.89401e-05 -0.000118457 -0.00011036 -0.000159658 -0.000118457 -0.000167666 -6.89401e-05 -0.000118457 -7.16496e-05 -0.000121164 -0.000118457 -0.000167666 -0.000121164 -0.000170345 -0.000127922 -0.000176792 -0.000146383 -0.00019487 -0.000176792 -0.000223901 -0.00019487 -0.000241448 -0.000146383 -0.00019487 -0.000159658 -0.000207868 -0.00019487 -0.000241448 -0.000207868 -0.000254059 -0.000223901 -0.000268205 -0.000241448 -0.000285124 -0.000268205 -0.000308666 -0.000285124 -0.000324921 -0.000241448 -0.000285124 -0.000254059 -0.000297273 -0.000285124 -0.000324921 -0.000297273 -0.000336578 -0.000159658 -0.000207868 -0.000167666 -0.000215708 -0.000207868 -0.000254059 -0.000215708 -0.000261662 -0.000167666 -0.000215708 -0.000170345 -0.000218328 -0.000215708 -0.000261662 -0.000218328 -0.000264202 -0.000254059 -0.000297273 -0.000261662 -0.000304593 -0.000297273 -0.000336578 -0.000304593 -0.000343593 -0.000261662 -0.000304593 -0.000264202 -0.000307038 -0.000304593 -0.000343593 -0.000307038 -0.000345936 0.000438399 0.000457495 0.00024664 0.000211037 0.000457495 0.000422135 0.000211037 0.000226749 0.00024664 0.000211037 0.000142201 0.000101043 0.000211037 0.000226749 0.000101043 8.86813e-05 0.000422135 0.000377748 0.000226749 0.000220794 0.000377748 0.000336135 0.000220794 0.000204233 0.000226749 0.000220794 8.86813e-05 8.86298e-05 0.000220794 0.000204233 8.86298e-05 8.36264e-05 0.000142201 0.000101043 6.17184e-05 1.94275e-05 0.000101043 8.86813e-05 1.94275e-05 -3.47354e-06 6.17184e-05 1.94275e-05 -5.13879e-06 -4.72099e-05 1.94275e-05 -3.47354e-06 -4.72099e-05 -7.54303e-05 8.86813e-05 8.86298e-05 -3.47354e-06 -1.28748e-05 8.86298e-05 8.36264e-05 -1.28748e-05 -1.75353e-05 -3.47354e-06 -1.28748e-05 -7.54303e-05 -9.14348e-05 -1.28748e-05 -1.75353e-05 -9.14348e-05 -0.000100029 0.000336135 0.000296703 0.000204233 0.000182624 0.000296703 0.000259366 0.000182624 0.000158917 0.000204233 0.000182624 8.36264e-05 7.37791e-05 0.000182624 0.000158917 7.37791e-05 6.0662e-05 0.000259366 0.000224034 0.000158917 0.000134741 0.000224034 0.000190892 0.000134741 0.000111166 0.000158917 0.000134741 6.0662e-05 4.58624e-05 0.000134741 0.000111166 4.58624e-05 3.06297e-05 8.36264e-05 7.37791e-05 -1.75353e-05 -2.28931e-05 7.37791e-05 6.0662e-05 -2.28931e-05 -2.98676e-05 -1.75353e-05 -2.28931e-05 -0.000100029 -0.000105414 -2.28931e-05 -2.98676e-05 -0.000105414 -0.000109932 6.0662e-05 4.58624e-05 -2.98676e-05 -3.81062e-05 4.58624e-05 3.06297e-05 -3.81062e-05 -4.68752e-05 -2.98676e-05 -3.81062e-05 -0.000109932 -0.000114324 -3.81062e-05 -4.68752e-05 -0.000114324 -0.00011859 -5.13879e-06 -4.72099e-05 -6.28838e-05 -0.000104352 -4.72099e-05 -7.54303e-05 -0.000104352 -0.000135102 -6.28838e-05 -0.000104352 -0.000113599 -0.000154304 -0.000104352 -0.000135102 -0.000154304 -0.000186218 -7.54303e-05 -9.14348e-05 -0.000135102 -0.000155416 -9.14348e-05 -0.000100029 -0.000155416 -0.000167698 -0.000135102 -0.000155416 -0.000186218 -0.000209097 -0.000155416 -0.000167698 -0.000209097 -0.000224126 -0.000113599 -0.000154304 -0.000158406 -0.000198271 -0.000154304 -0.000186218 -0.000198271 -0.000230574 -0.000158406 -0.000198271 -0.000197934 -0.000236923 -0.000198271 -0.000230574 -0.000236923 -0.000269151 -0.000186218 -0.000209097 -0.000230574 -0.00025487 -0.000209097 -0.000224126 -0.00025487 -0.000271684 -0.000230574 -0.00025487 -0.000269151 -0.000294096 -0.00025487 -0.000271684 -0.000294096 -0.000311914 -0.000100029 -0.000105414 -0.000167698 -0.000174836 -0.000105414 -0.000109932 -0.000174836 -0.000179025 -0.000167698 -0.000174836 -0.000224126 -0.000233128 -0.000174836 -0.000179025 -0.000233128 -0.000237843 -0.000109932 -0.000114324 -0.000179025 -0.000181529 -0.000114324 -0.00011859 -0.000181529 -0.000182894 -0.000179025 -0.000181529 -0.000237843 -0.000239562 -0.000181529 -0.000182894 -0.000239562 -0.000239101 -0.000224126 -0.000233128 -0.000271684 -0.00028213 -0.000233128 -0.000237843 -0.00028213 -0.000287478 -0.000271684 -0.00028213 -0.000311914 -0.000323255 -0.00028213 -0.000287478 -0.000323255 -0.000329017 -0.000237843 -0.000239562 -0.000287478 -0.000288863 -0.000239562 -0.000239101 -0.000288863 -0.000287167 -0.000287478 -0.000288863 -0.000329017 -0.00033013 -0.000288863 -0.000287167 -0.00033013 -0.000327445 0.000190892 0.000160338 0.000111166 8.90252e-05 0.000160338 0.000132941 8.90252e-05 6.9041e-05 0.000111166 8.90252e-05 3.06297e-05 1.59449e-05 8.90252e-05 6.9041e-05 1.59449e-05 2.59791e-06 0.000132941 0.000109365 6.9041e-05 5.18532e-05 0.000109365 9.02651e-05 5.18532e-05 3.79969e-05 6.9041e-05 5.18532e-05 2.59791e-06 -8.7643e-06 5.18532e-05 3.79969e-05 -8.7643e-06 -1.76194e-05 3.06297e-05 1.59449e-05 -4.68752e-05 -5.54239e-05 1.59449e-05 2.59791e-06 -5.54239e-05 -6.30791e-05 -4.68752e-05 -5.54239e-05 -0.00011859 -0.000122415 -5.54239e-05 -6.30791e-05 -0.000122415 -0.000125393 2.59791e-06 -8.7643e-06 -6.30791e-05 -6.92618e-05 -8.7643e-06 -1.76194e-05 -6.92618e-05 -7.34836e-05 -6.30791e-05 -6.92618e-05 -0.000125393 -0.000127109 -6.92618e-05 -7.34836e-05 -0.000127109 -0.000127171 9.02651e-05 7.61285e-05 3.79969e-05 2.7851e-05 7.61285e-05 6.70847e-05 2.7851e-05 2.15787e-05 3.79969e-05 2.7851e-05 -1.76194e-05 -2.35663e-05 2.7851e-05 2.15787e-05 -2.35663e-05 -2.63309e-05 6.70847e-05 6.26912e-05 2.15787e-05 1.90741e-05 6.26912e-05 6.1859e-05 1.90741e-05 1.97323e-05 2.15787e-05 1.90741e-05 -2.63309e-05 -2.58213e-05 1.90741e-05 1.97323e-05 -2.58213e-05 -2.23307e-05 -1.76194e-05 -2.35663e-05 -7.34836e-05 -7.53351e-05 -2.35663e-05 -2.63309e-05 -7.53351e-05 -7.44932e-05 -7.34836e-05 -7.53351e-05 -0.000127171 -0.000125223 -7.53351e-05 -7.44932e-05 -0.000125223 -0.000120954 -2.63309e-05 -2.58213e-05 -7.44932e-05 -7.07709e-05 -2.58213e-05 -2.23307e-05 -7.07709e-05 -6.42459e-05 -7.44932e-05 -7.07709e-05 -0.000120954 -0.000114123 -7.07709e-05 -6.42459e-05 -0.000114123 -0.000104554 -0.00011859 -0.000122415 -0.000182894 -0.000183242 -0.000122415 -0.000125393 -0.000183242 -0.00018248 -0.000182894 -0.000183242 -0.000239101 -0.000236901 -0.000183242 -0.00018248 -0.000236901 -0.000233151 -0.000125393 -0.000127109 -0.00018248 -0.000180415 -0.000127109 -0.000127171 -0.000180415 -0.000176813 -0.00018248 -0.000180415 -0.000233151 -0.000227892 -0.000180415 -0.000176813 -0.000227892 -0.000221078 -0.000239101 -0.000236901 -0.000287167 -0.000283014 -0.000236901 -0.000233151 -0.000283014 -0.000276811 -0.000287167 -0.000283014 -0.000327445 -0.000321667 -0.000283014 -0.000276811 -0.000321667 -0.000313354 -0.000233151 -0.000227892 -0.000276811 -0.000268812 -0.000227892 -0.000221078 -0.000268812 -0.000259154 -0.000276811 -0.000268812 -0.000313354 -0.000302934 -0.000268812 -0.000259154 -0.000302934 -0.000290719 -0.000127171 -0.000125223 -0.000176813 -0.000171426 -0.000125223 -0.000120954 -0.000171426 -0.000163993 -0.000176813 -0.000171426 -0.000221078 -0.000212596 -0.000171426 -0.000163993 -0.000212596 -0.000202269 -0.000120954 -0.000114123 -0.000163993 -0.000154236 -0.000114123 -0.000104554 -0.000154236 -0.000141793 -0.000163993 -0.000154236 -0.000202269 -0.000189817 -0.000154236 -0.000141793 -0.000189817 -0.000174786 -0.000221078 -0.000212596 -0.000259154 -0.000247878 -0.000212596 -0.000202269 -0.000247878 -0.000234911 -0.000259154 -0.000247878 -0.000290719 -0.000276902 -0.000247878 -0.000234911 -0.000276902 -0.000261537 -0.000202269 -0.000189817 -0.000234911 -0.000220027 -0.000189817 -0.000174786 -0.000220027 -0.000202762 -0.000234911 -0.000220027 -0.000261537 -0.000244494 -0.000220027 -0.000202762 -0.000244494 -0.000225382 -0.000197934 -0.000236923 -0.000232557 -0.00027066 -0.000236923 -0.000269151 -0.00027066 -0.000302528 -0.000232557 -0.00027066 -0.000262492 -0.000299728 -0.00027066 -0.000302528 -0.000299728 -0.000331061 -0.000269151 -0.000294096 -0.000302528 -0.000327604 -0.000294096 -0.000311914 -0.000327604 -0.000345831 -0.000302528 -0.000327604 -0.000331061 -0.000355924 -0.000327604 -0.000345831 -0.000355924 -0.000374136 -0.000262492 -0.000299728 -0.00028785 -0.000324263 -0.000299728 -0.000331061 -0.000324263 -0.000354973 -0.00028785 -0.000324263 -0.000308666 -0.000344328 -0.000324263 -0.000354973 -0.000344328 -0.000374405 -0.000331061 -0.000355924 -0.000354973 -0.000379416 -0.000355924 -0.000374136 -0.000379416 -0.000397333 -0.000354973 -0.000379416 -0.000374405 -0.000398334 -0.000379416 -0.000397333 -0.000398334 -0.000415808 -0.000311914 -0.000323255 -0.000345831 -0.000357563 -0.000323255 -0.000329017 -0.000357563 -0.000363416 -0.000345831 -0.000357563 -0.000374136 -0.000385853 -0.000357563 -0.000363416 -0.000385853 -0.000391495 -0.000329017 -0.00033013 -0.