# vtk DataFile Version 3.0
#This file was generated by the deal.II library on 2022/11/17 at 0:34:44
ASCII
DATASET UNSTRUCTURED_GRID

POINTS 9952 double
0.4375 0.75 0
0.46875 0.75 0
0.4375 0.78125 0
0.46875 0.78125 0
0.46875 0.75 0
0.5 0.75 0
0.46875 0.78125 0
0.5 0.78125 0
0.4375 0.78125 0
0.46875 0.78125 0
0.4375 0.8125 0
0.46875 0.8125 0
0.46875 0.78125 0
0.5 0.78125 0
0.46875 0.8125 0
0.5 0.8125 0
0.4375 0.8125 0
0.46875 0.8125 0
0.4375 0.84375 0
0.46875 0.84375 0
0.46875 0.8125 0
0.5 0.8125 0
0.46875 0.84375 0
0.5 0.84375 0
0.4375 0.84375 0
0.46875 0.84375 0
0.4375 0.875 0
0.46875 0.875 0
0.46875 0.84375 0
0.5 0.84375 0
0.46875 0.875 0
0.5 0.875 0
0.375 0.875 0
0.40625 0.875 0
0.375 0.90625 0
0.40625 0.90625 0
0.40625 0.875 0
0.4375 0.875 0
0.40625 0.90625 0
0.4375 0.90625 0
0.375 0.90625 0
0.40625 0.90625 0
0.375 0.9375 0
0.40625 0.9375 0
0.40625 0.90625 0
0.4375 0.90625 0
0.40625 0.9375 0
0.4375 0.9375 0
0.4375 0.875 0
0.46875 0.875 0
0.4375 0.90625 0
0.46875 0.90625 0
0.46875 0.875 0
0.5 0.875 0
0.46875 0.90625 0
0.5 0.90625 0
0.4375 0.90625 0
0.46875 0.90625 0
0.4375 0.9375 0
0.46875 0.9375 0
0.46875 0.90625 0
0.5 0.90625 0
0.46875 0.9375 0
0.5 0.9375 0
0.5625 0.5625 0
0.59375 0.5625 0
0.5625 0.59375 0
0.59375 0.59375 0
0.59375 0.5625 0
0.625 0.5625 0
0.59375 0.59375 0
0.625 0.59375 0
0.5625 0.59375 0
0.59375 0.59375 0
0.5625 0.625 0
0.59375 0.625 0
0.59375 0.59375 0
0.625 0.59375 0
0.59375 0.625 0
0.625 0.625 0
0.625 0.5 0
0.65625 0.5 0
0.625 0.53125 0
0.65625 0.53125 0
0.65625 0.5 0
0.6875 0.5 0
0.65625 0.53125 0
0.6875 0.53125 0
0.625 0.53125 0
0.65625 0.53125 0
0.625 0.5625 0
0.65625 0.5625 0
0.65625 0.53125 0
0.6875 0.53125 0
0.65625 0.5625 0
0.6875 0.5625 0
0.6875 0.5 0
0.71875 0.5 0
0.6875 0.53125 0
0.71875 0.53125 0
0.71875 0.5 0
0.75 0.5 0
0.71875 0.53125 0
0.75 0.53125 0
0.6875 0.53125 0
0.71875 0.53125 0
0.6875 0.5625 0
0.71875 0.5625 0
0.71875 0.53125 0
0.75 0.53125 0
0.71875 0.5625 0
0.75 0.5625 0
0.625 0.5625 0
0.65625 0.5625 0
0.625 0.59375 0
0.65625 0.59375 0
0.65625 0.5625 0
0.6875 0.5625 0
0.65625 0.59375 0
0.6875 0.59375 0
0.625 0.59375 0
0.65625 0.59375 0
0.625 0.625 0
0.65625 0.625 0
0.65625 0.59375 0
0.6875 0.59375 0
0.65625 0.625 0
0.6875 0.625 0
0.6875 0.5625 0
0.71875 0.5625 0
0.6875 0.59375 0
0.71875 0.59375 0
0.71875 0.5625 0
0.75 0.5625 0
0.71875 0.59375 0
0.75 0.59375 0
0.6875 0.59375 0
0.71875 0.59375 0
0.6875 0.625 0
0.71875 0.625 0
0.71875 0.59375 0
0.75 0.59375 0
0.71875 0.625 0
0.75 0.625 0
0.5625 0.625 0
0.59375 0.625 0
0.5625 0.65625 0
0.59375 0.65625 0
0.59375 0.625 0
0.625 0.625 0
0.59375 0.65625 0
0.625 0.65625 0
0.5625 0.65625 0
0.59375 0.65625 0
0.5625 0.6875 0
0.59375 0.6875 0
0.59375 0.65625 0
0.625 0.65625 0
0.59375 0.6875 0
0.625 0.6875 0
0.5 0.6875 0
0.53125 0.6875 0
0.5 0.71875 0
0.53125 0.71875 0
0.53125 0.6875 0
0.5625 0.6875 0
0.53125 0.71875 0
0.5625 0.71875 0
0.5 0.71875 0
0.53125 0.71875 0
0.5 0.75 0
0.53125 0.75 0
0.53125 0.71875 0
0.5625 0.71875 0
0.53125 0.75 0
0.5625 0.75 0
0.5625 0.6875 0
0.59375 0.6875 0
0.5625 0.71875 0
0.59375 0.71875 0
0.59375 0.6875 0
0.625 0.6875 0
0.59375 0.71875 0
0.625 0.71875 0
0.5625 0.71875 0
0.59375 0.71875 0
0.5625 0.75 0
0.59375 0.75 0
0.59375 0.71875 0
0.625 0.71875 0
0.59375 0.75 0
0.625 0.75 0
0.625 0.625 0
0.65625 0.625 0
0.625 0.65625 0
0.65625 0.65625 0
0.65625 0.625 0
0.6875 0.625 0
0.65625 0.65625 0
0.6875 0.65625 0
0.625 0.65625 0
0.65625 0.65625 0
0.625 0.6875 0
0.65625 0.6875 0
0.65625 0.65625 0
0.6875 0.65625 0
0.65625 0.6875 0
0.6875 0.6875 0
0.6875 0.625 0
0.71875 0.625 0
0.6875 0.65625 0
0.71875 0.65625 0
0.71875 0.625 0
0.75 0.625 0
0.71875 0.65625 0
0.75 0.65625 0
0.6875 0.65625 0
0.71875 0.65625 0
0.6875 0.6875 0
0.71875 0.6875 0
0.71875 0.65625 0
0.75 0.65625 0
0.71875 0.6875 0
0.75 0.6875 0
0.625 0.6875 0
0.65625 0.6875 0
0.625 0.71875 0
0.65625 0.71875 0
0.65625 0.6875 0
0.6875 0.6875 0
0.65625 0.71875 0
0.6875 0.71875 0
0.625 0.71875 0
0.65625 0.71875 0
0.625 0.75 0
0.65625 0.75 0
0.65625 0.71875 0
0.6875 0.71875 0
0.65625 0.75 0
0.6875 0.75 0
0.6875 0.6875 0
0.71875 0.6875 0
0.6875 0.71875 0
0.71875 0.71875 0
0.71875 0.6875 0
0.75 0.6875 0
0.71875 0.71875 0
0.75 0.71875 0
0.6875 0.71875 0
0.71875 0.71875 0
0.6875 0.75 0
0.71875 0.75 0
0.71875 0.71875 0
0.75 0.71875 0
0.71875 0.75 0
0.75 0.75 0
0.75 0.5 0
0.78125 0.5 0
0.75 0.53125 0
0.78125 0.53125 0
0.78125 0.5 0
0.8125 0.5 0
0.78125 0.53125 0
0.8125 0.53125 0
0.75 0.53125 0
0.78125 0.53125 0
0.75 0.5625 0
0.78125 0.5625 0
0.78125 0.53125 0
0.8125 0.53125 0
0.78125 0.5625 0
0.8125 0.5625 0
0.8125 0.5 0
0.84375 0.5 0
0.8125 0.53125 0
0.84375 0.53125 0
0.84375 0.5 0
0.875 0.5 0
0.84375 0.53125 0
0.875 0.53125 0
0.8125 0.53125 0
0.84375 0.53125 0
0.8125 0.5625 0
0.84375 0.5625 0
0.84375 0.53125 0
0.875 0.53125 0
0.84375 0.5625 0
0.875 0.5625 0
0.75 0.5625 0
0.78125 0.5625 0
0.75 0.59375 0
0.78125 0.59375 0
0.78125 0.5625 0
0.8125 0.5625 0
0.78125 0.59375 0
0.8125 0.59375 0
0.75 0.59375 0
0.78125 0.59375 0
0.75 0.625 0
0.78125 0.625 0
0.78125 0.59375 0
0.8125 0.59375 0
0.78125 0.625 0
0.8125 0.625 0
0.8125 0.5625 0
0.84375 0.5625 0
0.8125 0.59375 0
0.84375 0.59375 0
0.84375 0.5625 0
0.875 0.5625 0
0.84375 0.59375 0
0.875 0.59375 0
0.8125 0.59375 0
0.84375 0.59375 0
0.8125 0.625 0
0.84375 0.625 0
0.84375 0.59375 0
0.875 0.59375 0
0.84375 0.625 0
0.875 0.625 0
0.875 0.5 0
0.90625 0.5 0
0.875 0.53125 0
0.90625 0.53125 0
0.90625 0.5 0
0.9375 0.5 0
0.90625 0.53125 0
0.9375 0.53125 0
0.875 0.53125 0
0.90625 0.53125 0
0.875 0.5625 0
0.90625 0.5625 0
0.90625 0.53125 0
0.9375 0.53125 0
0.90625 0.5625 0
0.9375 0.5625 0
0.9375 0.5 0
0.96875 0.5 0
0.9375 0.53125 0
0.96875 0.53125 0
0.96875 0.5 0
1 0.5 0
0.96875 0.53125 0
1 0.53125 0
0.9375 0.53125 0
0.96875 0.53125 0
0.9375 0.5625 0
0.96875 0.5625 0
0.96875 0.53125 0
1 0.53125 0
0.96875 0.5625 0
1 0.5625 0
0.875 0.5625 0
0.90625 0.5625 0
0.875 0.59375 0
0.90625 0.59375 0
0.90625 0.5625 0
0.9375 0.5625 0
0.90625 0.59375 0
0.9375 0.59375 0
0.875 0.59375 0
0.90625 0.59375 0
0.875 0.625 0
0.90625 0.625 0
0.90625 0.59375 0
0.9375 0.59375 0
0.90625 0.625 0
0.9375 0.625 0
0.9375 0.5625 0
0.96875 0.5625 0
0.9375 0.59375 0
0.96875 0.59375 0
0.96875 0.5625 0
1 0.5625 0
0.96875 0.59375 0
1 0.59375 0
0.9375 0.59375 0
0.96875 0.59375 0
0.9375 0.625 0
0.96875 0.625 0
0.96875 0.59375 0
1 0.59375 0
0.96875 0.625 0
1 0.625 0
0.75 0.625 0
0.78125 0.625 0
0.75 0.65625 0
0.78125 0.65625 0
0.78125 0.625 0
0.8125 0.625 0
0.78125 0.65625 0
0.8125 0.65625 0
0.75 0.65625 0
0.78125 0.65625 0
0.75 0.6875 0
0.78125 0.6875 0
0.78125 0.65625 0
0.8125 0.65625 0
0.78125 0.6875 0
0.8125 0.6875 0
0.8125 0.625 0
0.84375 0.625 0
0.8125 0.65625 0
0.84375 0.65625 0
0.84375 0.625 0
0.875 0.625 0
0.84375 0.65625 0
0.875 0.65625 0
0.8125 0.65625 0
0.84375 0.65625 0
0.8125 0.6875 0
0.84375 0.6875 0
0.84375 0.65625 0
0.875 0.65625 0
0.84375 0.6875 0
0.875 0.6875 0
0.75 0.6875 0
0.78125 0.6875 0
0.75 0.71875 0
0.78125 0.71875 0
0.78125 0.6875 0
0.8125 0.6875 0
0.78125 0.71875 0
0.8125 0.71875 0
0.75 0.71875 0
0.78125 0.71875 0
0.75 0.75 0
0.78125 0.75 0
0.78125 0.71875 0
0.8125 0.71875 0
0.78125 0.75 0
0.8125 0.75 0
0.8125 0.6875 0
0.84375 0.6875 0
0.8125 0.71875 0
0.84375 0.71875 0
0.84375 0.6875 0
0.875 0.6875 0
0.84375 0.71875 0
0.875 0.71875 0
0.8125 0.71875 0
0.84375 0.71875 0
0.8125 0.75 0
0.84375 0.75 0
0.84375 0.71875 0
0.875 0.71875 0
0.84375 0.75 0
0.875 0.75 0
0.875 0.625 0
0.90625 0.625 0
0.875 0.65625 0
0.90625 0.65625 0
0.90625 0.625 0
0.9375 0.625 0
0.90625 0.65625 0
0.9375 0.65625 0
0.875 0.65625 0
0.90625 0.65625 0
0.875 0.6875 0
0.90625 0.6875 0
0.90625 0.65625 0
0.9375 0.65625 0
0.90625 0.6875 0
0.9375 0.6875 0
0.9375 0.625 0
0.96875 0.625 0
0.9375 0.65625 0
0.96875 0.65625 0
0.96875 0.625 0
1 0.625 0
0.96875 0.65625 0
1 0.65625 0
0.9375 0.65625 0
0.96875 0.65625 0
0.9375 0.6875 0
0.96875 0.6875 0
0.96875 0.65625 0
1 0.65625 0
0.96875 0.6875 0
1 0.6875 0
0.875 0.6875 0
0.90625 0.6875 0
0.875 0.71875 0
0.90625 0.71875 0
0.90625 0.6875 0
0.9375 0.6875 0
0.90625 0.71875 0
0.9375 0.71875 0
0.875 0.71875 0
0.90625 0.71875 0
0.875 0.75 0
0.90625 0.75 0
0.90625 0.71875 0
0.9375 0.71875 0
0.90625 0.75 0
0.9375 0.75 0
0.9375 0.6875 0
0.96875 0.6875 0
0.9375 0.71875 0
0.96875 0.71875 0
0.96875 0.6875 0
1 0.6875 0
0.96875 0.71875 0
1 0.71875 0
0.9375 0.71875 0
0.96875 0.71875 0
0.9375 0.75 0
0.96875 0.75 0
0.96875 0.71875 0
1 0.71875 0
0.96875 0.75 0
1 0.75 0
0.5 0.75 0
0.53125 0.75 0
0.5 0.78125 0
0.53125 0.78125 0
0.53125 0.75 0
0.5625 0.75 0
0.53125 0.78125 0
0.5625 0.78125 0
0.5 0.78125 0
0.53125 0.78125 0
0.5 0.8125 0
0.53125 0.8125 0
0.53125 0.78125 0
0.5625 0.78125 0
0.53125 0.8125 0
0.5625 0.8125 0
0.5625 0.75 0
0.59375 0.75 0
0.5625 0.78125 0
0.59375 0.78125 0
0.59375 0.75 0
0.625 0.75 0
0.59375 0.78125 0
0.625 0.78125 0
0.5625 0.78125 0
0.59375 0.78125 0
0.5625 0.8125 0
0.59375 0.8125 0
0.59375 0.78125 0
0.625 0.78125 0
0.59375 0.8125 0
0.625 0.8125 0
0.5 0.8125 0
0.53125 0.8125 0
0.5 0.84375 0
0.53125 0.84375 0
0.53125 0.8125 0
0.5625 0.8125 0
0.53125 0.84375 0
0.5625 0.84375 0
0.5 0.84375 0
0.53125 0.84375 0
0.5 0.875 0
0.53125 0.875 0
0.53125 0.84375 0
0.5625 0.84375 0
0.53125 0.875 0
0.5625 0.875 0
0.5625 0.8125 0
0.59375 0.8125 0
0.5625 0.84375 0
0.59375 0.84375 0
0.59375 0.8125 0
0.625 0.8125 0
0.59375 0.84375 0
0.625 0.84375 0
0.5625 0.84375 0
0.59375 0.84375 0
0.5625 0.875 0
0.59375 0.875 0
0.59375 0.84375 0
0.625 0.84375 0
0.59375 0.875 0
0.625 0.875 0
0.625 0.75 0
0.65625 0.75 0
0.625 0.78125 0
0.65625 0.78125 0
0.65625 0.75 0
0.6875 0.75 0
0.65625 0.78125 0
0.6875 0.78125 0
0.625 0.78125 0
0.65625 0.78125 0
0.625 0.8125 0
0.65625 0.8125 0
0.65625 0.78125 0
0.6875 0.78125 0
0.65625 0.8125 0
0.6875 0.8125 0
0.6875 0.75 0
0.71875 0.75 0
0.6875 0.78125 0
0.71875 0.78125 0
0.71875 0.75 0
0.75 0.75 0
0.71875 0.78125 0
0.75 0.78125 0
0.6875 0.78125 0
0.71875 0.78125 0
0.6875 0.8125 0
0.71875 0.8125 0
0.71875 0.78125 0
0.75 0.78125 0
0.71875 0.8125 0
0.75 0.8125 0
0.625 0.8125 0
0.65625 0.8125 0
0.625 0.84375 0
[...]
POINT_DATA 9952
SCALARS x_dis double 1
LOOKUP_TABLE default
-0.000166164 -0.000247801 -0.000217942 -0.00029988 -0.000247801 -0.000320609 -0.00029988 -0.000373984 -0.000217942 -0.00029988 -0.00026202 -0.000344295 -0.00029988 -0.000373984 -0.000344295 -0.000419528 -0.00026202 -0.000344295 -0.000299041 -0.000381543 -0.000344295 -0.000419528 -0.000381543 -0.000457718 -0.000299041 -0.000381543 -0.000329409 -0.000412144 -0.000381543 -0.000457718 -0.000412144 -0.000488957 -0.000148833 -0.000241128 -0.000172659 -0.00026481 -0.000241128 -0.000329409 -0.00026481 -0.000353293 -0.000172659 -0.00026481 -0.000188729 -0.000280666 -0.00026481 -0.000353293 -0.000280666 -0.000369807 -0.000329409 -0.000412144 -0.000353293 -0.000436361 -0.000412144 -0.000488957 -0.000436361 -0.000513572 -0.000353293 -0.000436361 -0.000369807 -0.000454125 -0.000436361 -0.000513572 -0.000454125 -0.000531363 0.000214316 0.000198798 5.0125e-05 3.22468e-05 0.000198798 0.000179054 3.22468e-05 1.79395e-05 5.0125e-05 3.22468e-05 -8.25524e-05 -0.000105615 3.22468e-05 1.79395e-05 -0.000105615 -0.000121903 0.000542167 0.000473752 0.000359534 0.000316733 0.000473752 0.000414297 0.000316733 0.00027636 0.000359534 0.000316733 0.000179054 0.000155612 0.000316733 0.00027636 0.000155612 0.000130641 0.000414297 0.000363553 0.00027636 0.000239727 0.000363553 0.000321209 0.000239727 0.000207631 0.00027636 0.000239727 0.000130641 0.000106108 0.000239727 0.000207631 0.000106108 8.33104e-05 0.000179054 0.000155612 1.79395e-05 3.12524e-06 0.000155612 0.000130641 3.12524e-06 -1.26837e-05 1.79395e-05 3.12524e-06 -0.000121903 -0.000135137 3.12524e-06 -1.26837e-05 -0.000135137 -0.000147371 0.000130641 0.000106108 -1.26837e-05 -2.88806e-05 0.000106108 8.33104e-05 -2.88806e-05 -4.46341e-05 -1.26837e-05 -2.88806e-05 -0.000147371 -0.000159247 -2.88806e-05 -4.46341e-05 -0.000159247 -0.000170703 -8.25524e-05 -0.000105615 -0.000193263 -0.00022202 -0.000105615 -0.000121903 -0.00022202 -0.000242643 -0.000193263 -0.00022202 -0.000287375 -0.000321554 -0.00022202 -0.000242643 -0.000321554 -0.000347185 -0.000185678 -0.000242372 -0.00025829 -0.000318224 -0.000242372 -0.000287375 -0.000318224 -0.000367594 -0.00025829 -0.000318224 -0.000320609 -0.000383515 -0.000318224 -0.000367594 -0.000383515 -0.000436757 -0.000287375 -0.000321554 -0.000367594 -0.000407059 -0.000321554 -0.000347185 -0.000407059 -0.000437829 -0.000367594 -0.000407059 -0.000436757 -0.000480746 -0.000407059 -0.000437829 -0.000480746 -0.000516342 -0.000121903 -0.000135137 -0.000242643 -0.000258078 -0.000135137 -0.000147371 -0.000258078 -0.000270563 -0.000242643 -0.000258078 -0.000347185 -0.000366495 -0.000258078 -0.000270563 -0.000366495 -0.000381442 -0.000147371 -0.000159247 -0.000270563 -0.000281385 -0.000159247 -0.000170703 -0.000281385 -0.000291089 -0.000270563 -0.000281385 -0.000381442 -0.000393454 -0.000281385 -0.000291089 -0.000393454 -0.000403401 -0.000347185 -0.000366495 -0.000437829 -0.00046165 -0.000366495 -0.000381442 -0.00046165 -0.000480157 -0.000437829 -0.00046165 -0.000516342 -0.000544726 -0.00046165 -0.000480157 -0.000544726 -0.000567197 -0.000381442 -0.000393454 -0.000480157 -0.000494699 -0.000393454 -0.000403401 -0.000494699 -0.000506246 -0.000480157 -0.000494699 -0.000567197 -0.000584931 -0.000494699 -0.000506246 -0.000584931 -0.000598879 0.000321209 0.000286926 0.000207631 0.000180486 0.000286926 0.000260285 0.000180486 0.000158417 0.000207631 0.000180486 8.33104e-05 6.30779e-05 0.000180486 0.000158417 6.30779e-05 4.59143e-05 0.000260285 0.000240753 0.000158417 0.000141318 0.000240753 0.00022764 0.000141318 0.000128879 0.000158417 0.000141318 4.59143e-05 3.2071e-05 0.000141318 0.000128879 3.2071e-05 2.16025e-05 8.33104e-05 6.30779e-05 -4.46341e-05 -5.91938e-05 6.30779e-05 4.59143e-05 -5.91938e-05 -7.19687e-05 -4.46341e-05 -5.91938e-05 -0.000170703 -0.000181383 -5.91938e-05 -7.19687e-05 -0.000181383 -0.000190853 4.59143e-05 3.2071e-05 -7.19687e-05 -8.25324e-05 3.2071e-05 2.16025e-05 -8.25324e-05 -9.06056e-05 -7.19687e-05 -8.25324e-05 -0.000190853 -0.000198703 -8.25324e-05 -9.06056e-05 -0.000198703 -0.000204587 0.00022764 0.000220019 0.000128879 0.000120603 0.000220019 0.000216624 0.000120603 0.000115819 0.000128879 0.000120603 2.16025e-05 1.44086e-05 0.000120603 0.000115819 1.44086e-05 1.02539e-05 0.000216624 0.000215787 0.000115819 0.000113714 0.000215787 0.000215722 0.000113714 0.000113179 0.000115819 0.000113714 1.02539e-05 8.69422e-06 0.000113714 0.000113179 8.69422e-06 8.69771e-06 2.16025e-05 1.44086e-05 -9.06056e-05 -9.60391e-05 1.44086e-05 1.02539e-05 -9.60391e-05 -9.88319e-05 -9.06056e-05 -9.60391e-05 -0.000204587 -0.000208249 -9.60391e-05 -9.88319e-05 -0.000208249 -0.000209568 1.02539e-05 8.69422e-06 -9.88319e-05 -9.92475e-05 8.69422e-06 8.69771e-06 -9.92475e-05 -9.8072e-05 -9.88319e-05 -9.92475e-05 -0.000209568 -0.000208646 -9.92475e-05 -9.8072e-05 -0.000208646 -0.000205922 -0.000170703 -0.000181383 -0.000291089 -0.000299763 -0.000181383 -0.000190853 -0.000299763 -0.000307243 -0.000291089 -0.000299763 -0.000403401 -0.000411698 -0.000299763 -0.000307243 -0.000411698 -0.000418451 -0.000190853 -0.000198703 -0.000307243 -0.000313256 -0.000198703 -0.000204587 -0.000313256 -0.000317504 -0.000307243 -0.000313256 -0.000418451 -0.000423567 -0.000313256 -0.000317504 -0.000423567 -0.000426851 -0.000403401 -0.000411698 -0.000506246 -0.000515405 -0.000411698 -0.000418451 -0.000515405 -0.000522477 -0.000506246 -0.000515405 -0.000598879 -0.000609719 -0.000515405 -0.000522477 -0.000609719 -0.000617867 -0.000418451 -0.000423567 -0.000522477 -0.000527534 -0.000423567 -0.000426851 -0.000527534 -0.000530492 -0.000522477 -0.000527534 -0.000617867 -0.000623513 -0.000527534 -0.000530492 -0.000623513 -0.000626663 -0.000204587 -0.000208249 -0.000317504 -0.00031972 -0.000208249 -0.000209568 -0.00031972 -0.00031972 -0.000317504 -0.00031972 -0.000426851 -0.000428073 -0.00031972 -0.00031972 -0.000428073 -0.000427013 -0.000209568 -0.000208646 -0.00031972 -0.000317449 -0.000208646 -0.000205922 -0.000317449 -0.000312994 -0.00031972 -0.000317449 -0.000427013 -0.000423478 -0.000317449 -0.000312994 -0.000423478 -0.000417262 -0.000426851 -0.000428073 -0.000530492 -0.000531169 -0.000428073 -0.000427013 -0.000531169 -0.00052933 -0.000530492 -0.000531169 -0.000626663 -0.000627181 -0.000531169 -0.00052933 -0.000627181 -0.000624823 -0.000427013 -0.000423478 -0.00052933 -0.000524674 -0.000423478 -0.000417262 -0.000524674 -0.000516776 -0.00052933 -0.000524674 -0.000624823 -0.000619214 -0.000524674 -0.000516776 -0.000619214 -0.000609786 -0.000320609 -0.000383515 -0.000373984 -0.000439495 -0.000383515 -0.000436757 -0.000439495 -0.000496107 -0.000373984 -0.000439495 -0.000419528 -0.000487078 -0.000439495 -0.000496107 -0.000487078 -0.000546588 -0.000436757 -0.000480746 -0.000496107 -0.000544098 -0.000480746 -0.000516342 -0.000544098 -0.000584011 -0.000496107 -0.000544098 -0.000546588 -0.000598034 -0.000544098 -0.000584011 -0.000598034 -0.000641722 -0.000419528 -0.000487078 -0.000457718 -0.000526953 -0.000487078 -0.000546588 -0.000526953 -0.000588848 -0.000457718 -0.000526953 -0.000488957 -0.000559507 -0.000526953 -0.000588848 -0.000559507 -0.000623289 -0.000546588 -0.000598034 -0.000588848 -0.000643185 -0.000598034 -0.000641722 -0.000643185 -0.000690056 -0.000588848 -0.000643185 -0.000623289 -0.000679938 -0.000643185 -0.000690056 -0.000679938 -0.000729356 -0.000516342 -0.000544726 -0.000584011 -0.00061668 -0.000544726 -0.000567197 -0.00061668 -0.000643089 -0.000584011 -0.00061668 -0.000641722 -0.000678223 -0.00061668 -0.000643089 -0.000678223 -0.000708281 -0.000567197 -0.000584931 -0.000643089 -0.000664216 -0.000584931 -0.000598879 -0.000664216 -0.000680923 -0.000643089 -0.000664216 -0.000708281 -0.000732689 -0.000664216 -0.000680923 -0.000732689 -0.000752196 -0.000641722 -0.000678223 -0.000690056 -0.000729838 -0.000678223 -0.000708281 -0.000729838 -0.000763102 -0.000690056 -0.000729838 -0.000729356 -0.000771824 -0.000729838 -0.000763102 -0.000771824 -0.000807758 -0.000708281 -0.000732689 -0.000763102 -0.000790479 -0.000732689 -0.000752196 -0.000790479 -0.000812604 -0.000763102 -0.000790479 -0.000807758 -0.000837675 -0.000790479 -0.000812604 -0.000837675 -0.000862089 -0.000488957 -0.000559507 -0.000513572 -0.000584891 -0.000559507 -0.000623289 -0.000584891 -0.000650064 -0.000513572 -0.000584891 -0.000531363 -0.000602973 -0.000584891 -0.000650064 -0.000602973 -0.000668746 -0.000623289 -0.000679938 -0.000650064 -0.000708397 -0.000679938 -0.000729356 -0.000708397 -0.000759807 -0.000650064 -0.000708397 -0.000668746 -0.000728842 -0.000708397 -0.000759807 -0.000728842 -0.000781235 -0.000668746 -0.000728842 -0.000680475 -0.000739756 -0.000728842 -0.000781235 -0.000739756 -0.000793591 -0.000680475 -0.000739756 -0.000678614 -0.00074182 -0.000739756 -0.000793591 -0.00074182 -0.000797503 -0.000729356 -0.000771824 -0.000759807 -0.0008043 -0.000771824 -0.000807758 -0.0008043 -0.00084236 -0.000759807 -0.0008043 -0.000781235 -0.000827306 -0.0008043 -0.00084236 -0.000827306 -0.000866974 -0.000807758 -0.000837675 -0.00084236 -0.000874326 -0.000837675 -0.000862089 -0.000874326 -0.000900609 -0.00084236 -0.000874326 -0.000866974 -0.000900464 -0.000874326 -0.000900609 -0.000900464 -0.000928135 -0.000781235 -0.000827306 -0.000793591 -0.000840937 -0.000827306 -0.000866974 -0.000840937 -0.000881673 -0.000793591 -0.000840937 -0.000797503 -0.000845421 -0.000840937 -0.000881673 -0.000845421 -0.000886556 -0.000866974 -0.000900464 -0.000881673 -0.000916123 -0.000900464 -0.000928135 -0.000916123 -0.000944652 -0.000881673 -0.000916123 -0.000886556 -0.000921337 -0.000916123 -0.000944652 -0.000921337 -0.000950158 -0.000598879 -0.000609719 -0.000680923 -0.00069389 -0.000609719 -0.000617867 -0.00069389 -0.000703579 -0.000680923 -0.00069389 -0.000752196 -0.000767436 -0.00069389 -0.000703579 -0.000767436 -0.000778874 -0.000617867 -0.000623513 -0.000703579 -0.000710247 -0.000623513 -0.000626663 -0.000710247 -0.000713957 -0.000703579 -0.000710247 -0.000778874 -0.00078679 -0.000710247 -0.000713957 -0.00078679 -0.000791278 -0.000752196 -0.000767436 -0.000812604 -0.000830042 -0.000767436 -0.000778874 -0.000830042 -0.00084323 -0.000812604 -0.000830042 -0.000862089 -0.000881492 -0.000830042 -0.00084323 -0.000881492 -0.00089628 -0.000778874 -0.00078679 -0.00084323 -0.000852448 -0.00078679 -0.000791278 -0.000852448 -0.000857794 -0.00084323 -0.000852448 -0.00089628 -0.000906716 -0.000852448 -0.000857794 -0.000906716 -0.000912893 -0.000626663 -0.000627181 -0.000713957 -0.000714606 -0.000627181 -0.000624823 -0.000714606 -0.000711947 -0.000713957 -0.000714606 -0.000791278 -0.000792249 -0.000714606 -0.000711947 -0.000792249 -0.000789455 -0.000624823 -0.000619214 -0.000711947 -0.000705558 -0.000619214 -0.000609786 -0.000705558 -0.000694793 -0.000711947 -0.000705558 -0.000789455 -0.000782448 -0.000705558 -0.000694793 -0.000782448 -0.000770555 -0.000791278 -0.000792249 -0.000857794 -0.000859187 -0.000792249 -0.000789455 -0.000859187 -0.00085637 -0.000857794 -0.000859187 -0.000912893 -0.000914729 -0.000859187 -0.00085637 -0.000914729 -0.000911955 -0.000789455 -0.000782448 -0.00085637 -0.00084889 -0.000782448 -0.000770555 -0.00084889 -0.000836079 -0.00085637 -0.00084889 -0.000911955 -0.000904124 -0.00084889 -0.000836079 -0.000904124 -0.000890593 -0.000862089 -0.000881492 -0.000900609 -0.000921636 -0.000881492 -0.00089628 -0.000921636 -0.000937765 -0.000900609 -0.000921636 -0.000928135 -0.000950373 -0.000921636 -0.000937765 -0.000950373 -0.000967509 -0.00089628 -0.000906716 -0.000937765 -0.000949238 -0.000906716 -0.000912893 -0.000949238 -0.000956135 -0.000937765 -0.000949238 -0.000967509 -0.000979766 -0.000949238 -0.000956135 -0.000979766 -0.000987215 -0.000928135 -0.000950373 -0.000944652 -0.000967638 -0.000950373 -0.000967509 -0.000967638 -0.000985397 -0.000944652 -0.000967638 -0.000950158 -0.000973396 -0.000967638 -0.000985397 -0.000973396 -0.000991367 -0.000967509 -0.000979766 -0.000985397 -0.000998143 -0.000979766 -0.000987215 -0.000998143 -0.00100594 -0.000985397 -0.000998143 -0.000991367 -0.00100428 -0.000998143 -0.00100594 -0.00100428 -0.00101219 -0.000912893 -0.000914729 -0.000956135 -0.00095837 -0.000914729 -0.000911955 -0.00095837 -0.000955669 -0.000956135 -0.00095837 -0.000987215 -0.000989764 -0.00095837 -0.000955669 -0.000989764 -0.000987135 -0.000911955 -0.000904124 -0.000955669 -0.00094759 -0.000904124 -0.000890593 -0.00094759 -0.000933522 -0.000955669 -0.00094759 -0.000987135 -0.000978893 -0.00094759 -0.000933522 -0.000978893 -0.000964453 -0.000987215 -0.000989764 -0.00100594 -0.00100868 -0.000989764 -0.000987135 -0.00100868 -0.00100611 -0.00100594 -0.00100868 -0.00101219 -0.00101501 -0.00100868 -0.00100611 -0.00101501 -0.00101245 -0.000987135 -0.000978893 -0.00100611 -0.000997771 -0.000978893 -0.000964453 -0.000997771 -0.000983114 -0.00100611 -0.000997771 -0.00101245 -0.00100408 -0.000997771 -0.000983114 -0.00100408 -0.000989352 -0.000230663 -0.000293738 -0.000226052 -0.000289423 -0.000293738 -0.000352876 -0.000289423 -0.000348857 -0.000226052 -0.000289423 -0.000212233 -0.000276481 -0.000289423 -0.000348857 -0.000276481 -0.000336799 -0.000212233 -0.000276481 -0.000189251 -0.00025493 -0.000276481 -0.000336799 -0.00025493 -0.000316697 -0.000189251 -0.00025493 -0.000157122 -0.000224738 -0.00025493 -0.000316697 -0.000224738 -0.000288604 -0.000352876 -0.000407503 -0.000348857 -0.000403762 -0.000407503 -0.000457068 -0.000403762 -0.000453571 -0.000348857 -0.000403762 -0.000336799 -0.000392532 -0.000403762 -0.000453571 -0.000392532 -0.000443072 -0.000457068 -0.000501089 -0.000453571 -0.000497794 -0.000501089 -0.000539196 -0.000497794 -0.00053605 -0.000453571 -0.000497794 -0.000443072 -0.000487894 -0.000497794 -0.00053605 -0.000487894 -0.000526597 -0.000336799 -0.000392532 -0.000316697 -0.000373808 -0.000392532 -0.000443072 -0.000373808 -0.000425541 -0.000316697 -0.000373808 -0.000288604 -0.00034753 -0.000373808 -0.000425541 -0.00034753 -0.000400936 -0.000443072 -0.000487894 -0.000425541 -0.000471356 -0.000487894 -0.000526597 -0.000471356 -0.000510789 -0.000425541 -0.000471356 -0.000400936 -0.000448114 -0.000471356 -0.000510789 -0.000448114 -0.000488533 -0.000288604 -0.00034753 -0.000252506 -0.000313686 -0.00034753 -0.000400936 -0.000313686 -0.000369171 -0.000252506 -0.000313686 -0.00020801 -0.000272073 -0.000313686 -0.000369171 -0.000272073 -0.000330049 -0.000400936 -0.000448114 -0.000369171 -0.000418044 -0.000448114 -0.000488533 -0.000418044 -0.000459664 -0.000369171 -0.000418044 -0.000330049 -0.000380914 -0.000418044 -0.000459664 -0.000380914 -0.0004239 -0.00020801 -0.000272073 -0.000155059 -0.000222355 -0.000272073 -0.000330049 -0.000222355 -0.000283217 -0.000155059 -0.000222355 -9.33796e-05 -0.000164065 -0.000222355 -0.000283217 -0.000164065 -0.000228157 -0.000330049 -0.000380914 -0.000283217 -0.000336341 -0.000380914 -0.0004239 -0.000336341 -0.000380797 -0.000283217 -0.000336341 -0.000228157 -0.000283687 -0.000336341 -0.000380797 -0.000283687 -0.000329726 -0.000228157 -0.000283687 -0.000164268 -0.000222232 -0.000283687 -0.000329726 -0.000222232 -0.000269791 -0.000164268 -0.000222232 -8.99928e-05 -0.000150625 -0.000222232 -0.000269791 -0.000150625 -0.000199461 -0.000539196 -0.000571146 -0.00053605 -0.000568095 -0.000571146 -0.0005969 -0.000568095 -0.000593889 -0.00053605 -0.000568095 -0.000526597 -0.000558922 -0.000568095 -0.000593889 -0.000558922 -0.00058483 -0.0005969 -0.000616648 -0.000593889 -0.000613627 -0.000616648 -0.000630771 -0.000613627 -0.0006277 -0.000593889 -0.000613627 -0.00058483 -0.000604532 -0.000613627 -0.0006277 -0.000604532 -0.000618448 -0.000526597 -0.000558922 -0.000510789 -0.000543562 -0.000558922 -0.00058483 -0.000543562 -0.000569637 -0.000510789 -0.000543562 -0.000488533 -0.000521887 -0.000543562 -0.000569637 -0.000521887 -0.000548152 -0.00058483 -0.000604532 -0.000569637 -0.000589258 -0.000604532 -0.000618448 -0.000589258 -0.000602897 -0.000569637 -0.000589258 -0.000548152 -0.000567618 -0.000589258 -0.000602897 -0.000567618 -0.000580837 -0.000630771 -0.000639802 -0.0006277 -0.000636652 -0.000639802 -0.000644392 -0.000636652 -0.000641146 -0.0006277 -0.000636652 -0.000618448 -0.00062716 -0.000636652 -0.000641146 -0.00062716 -0.000631368 -0.000644392 -0.000645258 -0.000641146 -0.000641914 -0.000645258 -0.000643126 -0.000641914 -0.000639688 -0.000641146 -0.000641914 -0.000631368 -0.000631841 -0.000641914 -0.000639688 -0.000631841 -0.00062934 -0.000618448 -0.00062716 -0.000602897 -0.000611199 -0.00062716 -0.000631368 -0.000611199 -0.000614929 -0.000602897 -0.000611199 -0.000580837 -0.000588547 -0.000611199 -0.000614929 -0.000588547 -0.00059161 -0.000631368 -0.000631841 -0.000614929 -0.000614917 -0.000631841 -0.00062934 -0.000614917 -0.000611972 -0.000614929 -0.000614917 -0.00059161 -0.000590938 -0.000614917 -0.000611972 -0.000590938 -0.000587408 -0.000488533 -0.000521887 -0.000459664 -0.000493689 -0.000521887 -0.000548152 -0.000493689 -0.00052012 -0.000459664 -0.000493689 -0.0004239 -0.000458633 -0.000493689 -0.00052012 -0.000458633 -0.000485158 -0.000548152 -0.000567618 -0.00052012 -0.00053932 -0.000567618 -0.000580837 -0.00053932 -0.00055195 -0.00052012 -0.00053932 -0.000485158 -0.000503937 -0.00053932 -0.00055195 -0.000503937 -0.000515784 -0.0004239 -0.000458633 -0.000380797 -0.000416225 -0.000458633 -0.000485158 -0.000416225 -0.000442712 -0.000380797 -0.000416225 -0.000329726 -0.000365751 -0.000416225 -0.000442712 -0.000365751 -0.000391989 -0.000485158 -0.000503937 -0.000442712 -0.000460869 -0.000503937 -0.000515784 -0.000460869 -0.000471721 -0.000442712 -0.000460869 -0.000391989 -0.000409283 -0.000460869 -0.000471721 -0.000409283 -0.000418932 -0.000580837 -0.000588547 -0.00055195 -0.000558879 -0.000588547 -0.00059161 -0.000558879 -0.000561097 -0.00055195 -0.000558879 -0.000515784 -0.000521742 -0.000558879 -0.000561097 -0.000521742 -0.000522968 -0.00059161 -0.000590938 -0.000561097 -0.00055962 -0.000590938 -0.000587408 -0.00055962 -0.000555415 -0.000561097 -0.00055962 -0.000522968 -0.000520607 -0.00055962 -0.000555415 -0.000520607 -0.000515717 -0.000515784 -0.000521742 -0.000471721 -0.000476541 -0.000521742 -0.000522968 -0.000476541 -0.000476695 -0.000471721 -0.000476541 -0.000418932 -0.000422508 -0.000476541 -0.000476695 -0.000422508 -0.000421635 -0.000522968 -0.000520607 -0.000476695 -0.000473474 -0.000520607 -0.000515717 -0.000473474 -0.00046802 -0.000476695 -0.000473474 -0.000421635 -0.000417752 -0.000473474 -0.00046802 -0.000417752 -0.000412051 -0.000643126 -0.000638705 -0.000639688 -0.000635189 -0.000638705 -0.000632623 -0.000635189 -0.000629048 -0.000639688 -0.000635189 -0.00062934 -0.00062461 -0.000635189 -0.000629048 -0.00062461 -0.000618298 -0.000632623 -0.000625376 -0.000629048 -0.000621764 -0.000625376 -0.000617299 -0.000621764 -0.000613673 -0.000629048 -0.000621764 -0.000618298 -0.000610909 -0.000621764 -0.000613673 -0.000610909 -0.000602783 -0.00062934 -0.00062461 -0.000611972 -0.000606878 -0.00062461 -0.000618298 -0.000606878 -0.000600302 -0.000611972 -0.000606878 -0.000587408 -0.000581851 -0.000606878 -0.000600302 -0.000581851 -0.000574958 -0.000618298 -0.000610909 -0.000600302 -0.000592761 -0.000610909 -0.000602783 -0.000592761 -0.000584593 -0.000600302 -0.000592761 -0.000574958 -0.000567252 -0.000592761 -0.000584593 -0.000567252 -0.000559067 -0.000617299 -0.000608545 -0.000613673 -0.000604928 -0.000608545 -0.000599067 -0.000604928 -0.000595478 -0.000613673 -0.000604928 -0.000602783 -0.000594067 -0.000604928 -0.000595478 -0.000594067 -0.000584704 -0.000599067 -0.000588619 -0.000595478 -0.000585071 -0.000588619 -0.000576761 -0.000585071 -0.000573257 -0.000595478 -0.000585071 -0.000584704 -0.000574424 -0.000585071 -0.000573257 -0.000574424 -0.000562747 -0.000602783 -0.000594067 -0.000584593 -0.000575942 -0.000594067 -0.000584704 -0.000575942 -0.000566733 -0.000584593 -0.000575942 -0.000559067 -0.000550536 -0.000575942 -0.000566733 -0.000550536 -0.000541568 -0.000584704 -0.000574424 -0.000566733 -0.000556674 -0.000574424 -0.000562747 -0.000556674 -