# vtk DataFile Version 3.0
#This file was generated by the deal.II library on 2022/11/17 at 1:07:26
ASCII
DATASET UNSTRUCTURED_GRID

POINTS 10240 double
0.4375 0.75 0
0.46875 0.75 0
0.4375 0.78125 0
0.46875 0.78125 0
0.46875 0.75 0
0.5 0.75 0
0.46875 0.78125 0
0.5 0.78125 0
0.4375 0.78125 0
0.46875 0.78125 0
0.4375 0.8125 0
0.46875 0.8125 0
0.46875 0.78125 0
0.5 0.78125 0
0.46875 0.8125 0
0.5 0.8125 0
0.4375 0.8125 0
0.46875 0.8125 0
0.4375 0.84375 0
0.46875 0.84375 0
0.46875 0.8125 0
0.5 0.8125 0
0.46875 0.84375 0
0.5 0.84375 0
0.4375 0.84375 0
0.46875 0.84375 0
0.4375 0.875 0
0.46875 0.875 0
0.46875 0.84375 0
0.5 0.84375 0
0.46875 0.875 0
0.5 0.875 0
0.375 0.875 0
0.40625 0.875 0
0.375 0.90625 0
0.40625 0.90625 0
0.40625 0.875 0
0.4375 0.875 0
0.40625 0.90625 0
0.4375 0.90625 0
0.375 0.90625 0
0.40625 0.90625 0
0.375 0.9375 0
0.40625 0.9375 0
0.40625 0.90625 0
0.4375 0.90625 0
0.40625 0.9375 0
0.4375 0.9375 0
0.4375 0.875 0
0.46875 0.875 0
0.4375 0.90625 0
0.46875 0.90625 0
0.46875 0.875 0
0.5 0.875 0
0.46875 0.90625 0
0.5 0.90625 0
0.4375 0.90625 0
0.46875 0.90625 0
0.4375 0.9375 0
0.46875 0.9375 0
0.46875 0.90625 0
0.5 0.90625 0
0.46875 0.9375 0
0.5 0.9375 0
0.625 0.5 0
0.65625 0.5 0
0.625 0.53125 0
0.65625 0.53125 0
0.65625 0.5 0
0.6875 0.5 0
0.65625 0.53125 0
0.6875 0.53125 0
0.625 0.53125 0
0.65625 0.53125 0
0.625 0.5625 0
0.65625 0.5625 0
0.65625 0.53125 0
0.6875 0.53125 0
0.65625 0.5625 0
0.6875 0.5625 0
0.6875 0.5 0
0.71875 0.5 0
0.6875 0.53125 0
0.71875 0.53125 0
0.71875 0.5 0
0.75 0.5 0
0.71875 0.53125 0
0.75 0.53125 0
0.6875 0.53125 0
0.71875 0.53125 0
0.6875 0.5625 0
0.71875 0.5625 0
0.71875 0.53125 0
0.75 0.53125 0
0.71875 0.5625 0
0.75 0.5625 0
0.625 0.5625 0
0.65625 0.5625 0
0.625 0.59375 0
0.65625 0.59375 0
0.65625 0.5625 0
0.6875 0.5625 0
0.65625 0.59375 0
0.6875 0.59375 0
0.625 0.59375 0
0.65625 0.59375 0
0.625 0.625 0
0.65625 0.625 0
0.65625 0.59375 0
0.6875 0.59375 0
0.65625 0.625 0
0.6875 0.625 0
0.6875 0.5625 0
0.71875 0.5625 0
0.6875 0.59375 0
0.71875 0.59375 0
0.71875 0.5625 0
0.75 0.5625 0
0.71875 0.59375 0
0.75 0.59375 0
0.6875 0.59375 0
0.71875 0.59375 0
0.6875 0.625 0
0.71875 0.625 0
0.71875 0.59375 0
0.75 0.59375 0
0.71875 0.625 0
0.75 0.625 0
0.5625 0.625 0
0.59375 0.625 0
0.5625 0.65625 0
0.59375 0.65625 0
0.59375 0.625 0
0.625 0.625 0
0.59375 0.65625 0
0.625 0.65625 0
0.5625 0.65625 0
0.59375 0.65625 0
0.5625 0.6875 0
0.59375 0.6875 0
0.59375 0.65625 0
0.625 0.65625 0
0.59375 0.6875 0
0.625 0.6875 0
0.5 0.6875 0
0.53125 0.6875 0
0.5 0.71875 0
0.53125 0.71875 0
0.53125 0.6875 0
0.5625 0.6875 0
0.53125 0.71875 0
0.5625 0.71875 0
0.5 0.71875 0
0.53125 0.71875 0
0.5 0.75 0
0.53125 0.75 0
0.53125 0.71875 0
0.5625 0.71875 0
0.53125 0.75 0
0.5625 0.75 0
0.5625 0.6875 0
0.59375 0.6875 0
0.5625 0.71875 0
0.59375 0.71875 0
0.59375 0.6875 0
0.625 0.6875 0
0.59375 0.71875 0
0.625 0.71875 0
0.5625 0.71875 0
0.59375 0.71875 0
0.5625 0.75 0
0.59375 0.75 0
0.59375 0.71875 0
0.625 0.71875 0
0.59375 0.75 0
0.625 0.75 0
0.625 0.625 0
0.65625 0.625 0
0.625 0.65625 0
0.65625 0.65625 0
0.65625 0.625 0
0.6875 0.625 0
0.65625 0.65625 0
0.6875 0.65625 0
0.625 0.65625 0
0.65625 0.65625 0
0.625 0.6875 0
0.65625 0.6875 0
0.65625 0.65625 0
0.6875 0.65625 0
0.65625 0.6875 0
0.6875 0.6875 0
0.6875 0.625 0
0.71875 0.625 0
0.6875 0.65625 0
0.71875 0.65625 0
0.71875 0.625 0
0.75 0.625 0
0.71875 0.65625 0
0.75 0.65625 0
0.6875 0.65625 0
0.71875 0.65625 0
0.6875 0.6875 0
0.71875 0.6875 0
0.71875 0.65625 0
0.75 0.65625 0
0.71875 0.6875 0
0.75 0.6875 0
0.625 0.6875 0
0.65625 0.6875 0
0.625 0.71875 0
0.65625 0.71875 0
0.65625 0.6875 0
0.6875 0.6875 0
0.65625 0.71875 0
0.6875 0.71875 0
0.625 0.71875 0
0.65625 0.71875 0
0.625 0.75 0
0.65625 0.75 0
0.65625 0.71875 0
0.6875 0.71875 0
0.65625 0.75 0
0.6875 0.75 0
0.6875 0.6875 0
0.71875 0.6875 0
0.6875 0.71875 0
0.71875 0.71875 0
0.71875 0.6875 0
0.75 0.6875 0
0.71875 0.71875 0
0.75 0.71875 0
0.6875 0.71875 0
0.71875 0.71875 0
0.6875 0.75 0
0.71875 0.75 0
0.71875 0.71875 0
0.75 0.71875 0
0.71875 0.75 0
0.75 0.75 0
0.75 0.5 0
0.78125 0.5 0
0.75 0.53125 0
0.78125 0.53125 0
0.78125 0.5 0
0.8125 0.5 0
0.78125 0.53125 0
0.8125 0.53125 0
0.75 0.53125 0
0.78125 0.53125 0
0.75 0.5625 0
0.78125 0.5625 0
0.78125 0.53125 0
0.8125 0.53125 0
0.78125 0.5625 0
0.8125 0.5625 0
0.8125 0.5 0
0.84375 0.5 0
0.8125 0.53125 0
0.84375 0.53125 0
0.84375 0.5 0
0.875 0.5 0
0.84375 0.53125 0
0.875 0.53125 0
0.8125 0.53125 0
0.84375 0.53125 0
0.8125 0.5625 0
0.84375 0.5625 0
0.84375 0.53125 0
0.875 0.53125 0
0.84375 0.5625 0
0.875 0.5625 0
0.75 0.5625 0
0.78125 0.5625 0
0.75 0.59375 0
0.78125 0.59375 0
0.78125 0.5625 0
0.8125 0.5625 0
0.78125 0.59375 0
0.8125 0.59375 0
0.75 0.59375 0
0.78125 0.59375 0
0.75 0.625 0
0.78125 0.625 0
0.78125 0.59375 0
0.8125 0.59375 0
0.78125 0.625 0
0.8125 0.625 0
0.8125 0.5625 0
0.84375 0.5625 0
0.8125 0.59375 0
0.84375 0.59375 0
0.84375 0.5625 0
0.875 0.5625 0
0.84375 0.59375 0
0.875 0.59375 0
0.8125 0.59375 0
0.84375 0.59375 0
0.8125 0.625 0
0.84375 0.625 0
0.84375 0.59375 0
0.875 0.59375 0
0.84375 0.625 0
0.875 0.625 0
0.875 0.5 0
0.90625 0.5 0
0.875 0.53125 0
0.90625 0.53125 0
0.90625 0.5 0
0.9375 0.5 0
0.90625 0.53125 0
0.9375 0.53125 0
0.875 0.53125 0
0.90625 0.53125 0
0.875 0.5625 0
0.90625 0.5625 0
0.90625 0.53125 0
0.9375 0.53125 0
0.90625 0.5625 0
0.9375 0.5625 0
0.9375 0.5 0
0.96875 0.5 0
0.9375 0.53125 0
0.96875 0.53125 0
0.96875 0.5 0
1 0.5 0
0.96875 0.53125 0
1 0.53125 0
0.9375 0.53125 0
0.96875 0.53125 0
0.9375 0.5625 0
0.96875 0.5625 0
0.96875 0.53125 0
1 0.53125 0
0.96875 0.5625 0
1 0.5625 0
0.875 0.5625 0
0.90625 0.5625 0
0.875 0.59375 0
0.90625 0.59375 0
0.90625 0.5625 0
0.9375 0.5625 0
0.90625 0.59375 0
0.9375 0.59375 0
0.875 0.59375 0
0.90625 0.59375 0
0.875 0.625 0
0.90625 0.625 0
0.90625 0.59375 0
0.9375 0.59375 0
0.90625 0.625 0
0.9375 0.625 0
0.9375 0.5625 0
0.96875 0.5625 0
0.9375 0.59375 0
0.96875 0.59375 0
0.96875 0.5625 0
1 0.5625 0
0.96875 0.59375 0
1 0.59375 0
0.9375 0.59375 0
0.96875 0.59375 0
0.9375 0.625 0
0.96875 0.625 0
0.96875 0.59375 0
1 0.59375 0
0.96875 0.625 0
1 0.625 0
0.75 0.625 0
0.78125 0.625 0
0.75 0.65625 0
0.78125 0.65625 0
0.78125 0.625 0
0.8125 0.625 0
0.78125 0.65625 0
0.8125 0.65625 0
0.75 0.65625 0
0.78125 0.65625 0
0.75 0.6875 0
0.78125 0.6875 0
0.78125 0.65625 0
0.8125 0.65625 0
0.78125 0.6875 0
0.8125 0.6875 0
0.8125 0.625 0
0.84375 0.625 0
0.8125 0.65625 0
0.84375 0.65625 0
0.84375 0.625 0
0.875 0.625 0
0.84375 0.65625 0
0.875 0.65625 0
0.8125 0.65625 0
0.84375 0.65625 0
0.8125 0.6875 0
0.84375 0.6875 0
0.84375 0.65625 0
0.875 0.65625 0
0.84375 0.6875 0
0.875 0.6875 0
0.75 0.6875 0
0.78125 0.6875 0
0.75 0.71875 0
0.78125 0.71875 0
0.78125 0.6875 0
0.8125 0.6875 0
0.78125 0.71875 0
0.8125 0.71875 0
0.75 0.71875 0
0.78125 0.71875 0
0.75 0.75 0
0.78125 0.75 0
0.78125 0.71875 0
0.8125 0.71875 0
0.78125 0.75 0
0.8125 0.75 0
0.8125 0.6875 0
0.84375 0.6875 0
0.8125 0.71875 0
0.84375 0.71875 0
0.84375 0.6875 0
0.875 0.6875 0
0.84375 0.71875 0
0.875 0.71875 0
0.8125 0.71875 0
0.84375 0.71875 0
0.8125 0.75 0
0.84375 0.75 0
0.84375 0.71875 0
0.875 0.71875 0
0.84375 0.75 0
0.875 0.75 0
0.875 0.625 0
0.90625 0.625 0
0.875 0.65625 0
0.90625 0.65625 0
0.90625 0.625 0
0.9375 0.625 0
0.90625 0.65625 0
0.9375 0.65625 0
0.875 0.65625 0
0.90625 0.65625 0
0.875 0.6875 0
0.90625 0.6875 0
0.90625 0.65625 0
0.9375 0.65625 0
0.90625 0.6875 0
0.9375 0.6875 0
0.9375 0.625 0
0.96875 0.625 0
0.9375 0.65625 0
0.96875 0.65625 0
0.96875 0.625 0
1 0.625 0
0.96875 0.65625 0
1 0.65625 0
0.9375 0.65625 0
0.96875 0.65625 0
0.9375 0.6875 0
0.96875 0.6875 0
0.96875 0.65625 0
1 0.65625 0
0.96875 0.6875 0
1 0.6875 0
0.875 0.6875 0
0.90625 0.6875 0
0.875 0.71875 0
0.90625 0.71875 0
0.90625 0.6875 0
0.9375 0.6875 0
0.90625 0.71875 0
0.9375 0.71875 0
0.875 0.71875 0
0.90625 0.71875 0
0.875 0.75 0
0.90625 0.75 0
0.90625 0.71875 0
0.9375 0.71875 0
0.90625 0.75 0
0.9375 0.75 0
0.9375 0.6875 0
0.96875 0.6875 0
0.9375 0.71875 0
0.96875 0.71875 0
0.96875 0.6875 0
1 0.6875 0
0.96875 0.71875 0
1 0.71875 0
0.9375 0.71875 0
0.96875 0.71875 0
0.9375 0.75 0
0.96875 0.75 0
0.96875 0.71875 0
1 0.71875 0
0.96875 0.75 0
1 0.75 0
0.5 0.75 0
0.53125 0.75 0
0.5 0.78125 0
0.53125 0.78125 0
0.53125 0.75 0
0.5625 0.75 0
0.53125 0.78125 0
0.5625 0.78125 0
0.5 0.78125 0
0.53125 0.78125 0
0.5 0.8125 0
0.53125 0.8125 0
0.53125 0.78125 0
0.5625 0.78125 0
0.53125 0.8125 0
0.5625 0.8125 0
0.5625 0.75 0
0.59375 0.75 0
0.5625 0.78125 0
0.59375 0.78125 0
0.59375 0.75 0
0.625 0.75 0
0.59375 0.78125 0
0.625 0.78125 0
0.5625 0.78125 0
0.59375 0.78125 0
0.5625 0.8125 0
0.59375 0.8125 0
0.59375 0.78125 0
0.625 0.78125 0
0.59375 0.8125 0
0.625 0.8125 0
0.5 0.8125 0
0.53125 0.8125 0
0.5 0.84375 0
0.53125 0.84375 0
0.53125 0.8125 0
0.5625 0.8125 0
0.53125 0.84375 0
0.5625 0.84375 0
0.5 0.84375 0
0.53125 0.84375 0
0.5 0.875 0
0.53125 0.875 0
0.53125 0.84375 0
0.5625 0.84375 0
0.53125 0.875 0
0.5625 0.875 0
0.5625 0.8125 0
0.59375 0.8125 0
0.5625 0.84375 0
0.59375 0.84375 0
0.59375 0.8125 0
0.625 0.8125 0
0.59375 0.84375 0
0.625 0.84375 0
0.5625 0.84375 0
0.59375 0.84375 0
0.5625 0.875 0
0.59375 0.875 0
0.59375 0.84375 0
0.625 0.84375 0
0.59375 0.875 0
0.625 0.875 0
0.625 0.75 0
0.65625 0.75 0
0.625 0.78125 0
0.65625 0.78125 0
0.65625 0.75 0
0.6875 0.75 0
0.65625 0.78125 0
0.6875 0.78125 0
0.625 0.78125 0
0.65625 0.78125 0
0.625 0.8125 0
0.65625 0.8125 0
0.65625 0.78125 0
0.6875 0.78125 0
0.65625 0.8125 0
0.6875 0.8125 0
0.6875 0.75 0
0.71875 0.75 0
0.6875 0.78125 0
0.71875 0.78125 0
0.71875 0.75 0
0.75 0.75 0
0.71875 0.78125 0
0.75 0.78125 0
0.6875 0.78125 0
0.71875 0.78125 0
0.6875 0.8125 0
0.71875 0.8125 0
0.71875 0.78125 0
0.75 0.78125 0
0.71875 0.8125 0
0.75 0.8125 0
0.625 0.8125 0
0.65625 0.8125 0
0.625 0.84375 0
0.65625 0.84375 0
0.65625 0.8125 0
0.6875 0.8125 0
0.65625 0.84375 0
0.6875 0.84375 0
0.625 0.84375 0
0.65625 0.84375 0
0.625 0.875 0
0.65625 0.875 0
0.65625 0.84375 0
0.6875 0.84375 0
0.65625 0.875 0
0.6875 0.875 0
0.6875 0.8125 0
0.71875 0.8125 0
0.6875 0.84375 0
[...]
POINT_DATA 10240
SCALARS x_dis double 1
LOOKUP_TABLE default
-0.000155536 -0.000129551 -0.000268879 -0.000235136 -0.000129551 -0.000105516 -0.000235136 -0.000202675 -0.000268879 -0.000235136 -0.000370178 -0.000330009 -0.000235136 -0.000202675 -0.000330009 -0.000290618 -0.000370178 -0.000330009 -0.00045803 -0.000412808 -0.000330009 -0.000290618 -0.000412808 -0.000367785 -0.00045803 -0.000412808 -0.000531369 -0.000482416 -0.000412808 -0.000367785 -0.000482416 -0.000433009 -0.000622065 -0.000578349 -0.00068389 -0.00063899 -0.000578349 -0.000531369 -0.00063899 -0.000589765 -0.00068389 -0.00063899 -0.000728261 -0.000683067 -0.00063899 -0.000589765 -0.000683067 -0.000632643 -0.000531369 -0.000482416 -0.000589765 -0.00053805 -0.000482416 -0.000433009 -0.00053805 -0.000485347 -0.000589765 -0.00053805 -0.000632643 -0.000579032 -0.00053805 -0.000485347 -0.000579032 -0.000523941 0.000502801 0.000446745 0.000455315 0.000416471 0.000446745 0.000403884 0.000416471 0.000383565 0.000455315 0.000416471 0.000389225 0.000367979 0.000416471 0.000383565 0.000367979 0.00034714 0.000403884 0.000370265 0.000383565 0.000356579 0.000370265 0.00034391 0.000356579 0.000334962 0.000383565 0.000356579 0.00034714 0.000328855 0.000356579 0.000334962 0.000328855 0.000313795 0.000389225 0.000367979 0.000323853 0.000312066 0.000367979 0.00034714 0.000312066 0.000301059 0.000323853 0.000312066 0.000258436 0.000253088 0.000312066 0.000301059 0.000253088 0.000249567 0.00034714 0.000328855 0.000301059 0.000291259 0.000328855 0.000313795 0.000291259 0.000283273 0.000301059 0.000291259 0.000249567 0.000247205 0.000291259 0.000283273 0.000247205 0.000246011 0.000281494 0.000266899 0.00019829 0.000192552 0.000266899 0.000258436 0.000192552 0.000190615 0.00019829 0.000192552 0.000111516 0.000115084 0.000192552 0.000190615 0.000115084 0.000120906 0.000106813 0.000109103 -1.65342e-06 1.13188e-05 0.000109103 0.000111516 1.13188e-05 2.37985e-05 -1.65342e-06 1.13188e-05 -0.000105516 -8.30568e-05 1.13188e-05 2.37985e-05 -8.30568e-05 -6.14195e-05 0.000111516 0.000115084 2.37985e-05 3.66782e-05 0.000115084 0.000120906 3.66782e-05 5.04609e-05 2.37985e-05 3.66782e-05 -6.14195e-05 -4.01067e-05 3.66782e-05 5.04609e-05 -4.01067e-05 -1.87423e-05 0.000258436 0.000253088 0.000190615 0.000191794 0.000253088 0.000249567 0.000191794 0.000194843 0.000190615 0.000191794 0.000120906 0.000128805 0.000191794 0.000194843 0.000128805 0.0001382 0.000249567 0.000247205 0.000194843 0.000199062 0.000247205 0.000246011 0.000199062 0.000204141 0.000194843 0.000199062 0.0001382 0.000148513 0.000199062 0.000204141 0.000148513 0.000159384 0.000120906 0.000128805 5.04609e-05 6.52818e-05 0.000128805 0.0001382 6.52818e-05 8.09083e-05 5.04609e-05 6.52818e-05 -1.87423e-05 2.79487e-06 6.52818e-05 8.09083e-05 2.79487e-06 2.44236e-05 0.0001382 0.000148513 8.09083e-05 9.69988e-05 0.000148513 0.000159384 9.69988e-05 0.000113245 8.09083e-05 9.69988e-05 2.44236e-05 4.59509e-05 9.69988e-05 0.000113245 4.59509e-05 6.71524e-05 0.00034391 0.000323586 0.000334962 0.000318113 0.000323586 0.000308423 0.000318113 0.000305465 0.000334962 0.000318113 0.000313795 0.000302039 0.000318113 0.000305465 0.000302039 0.000293408 0.000308423 0.000297721 0.000305465 0.000296468 0.000297721 0.000290828 0.000296468 0.000290571 0.000305465 0.000296468 0.000293408 0.000287594 0.000296468 0.000290571 0.000287594 0.000284216 0.000313795 0.000302039 0.000283273 0.000277389 0.000302039 0.000293408 0.000277389 0.000273648 0.000283273 0.000277389 0.000246011 0.000246119 0.000277389 0.000273648 0.000246119 0.000247582 0.000293408 0.000287594 0.000273648 0.000271922 0.000287594 0.000284216 0.000271922 0.000271974 0.000273648 0.000271922 0.000247582 0.000250342 0.000271922 0.000271974 0.000250342 0.000254234 0.000290828 0.000287019 0.000290571 0.000287188 0.000287019 0.000285414 0.000287188 0.000285699 0.000290571 0.000287188 0.000284216 0.000282844 0.000287188 0.000285699 0.000282844 0.000282992 0.000285414 0.000285011 0.000285699 0.000285447 0.000285011 0.00028503 0.000285447 0.000285698 0.000285699 0.000285447 0.000282992 0.000284065 0.000285447 0.000285698 0.000284065 0.000285181 0.000284216 0.000282844 0.000271974 0.000273479 0.000282844 0.000282992 0.000273479 0.000276018 0.000271974 0.000273479 0.000254234 0.000258997 0.000273479 0.000276018 0.000258997 0.000264247 0.000282992 0.000284065 0.000276018 0.000278992 0.000284065 0.000285181 0.000278992 0.000281429 0.000276018 0.000278992 0.000264247 0.000269407 0.000278992 0.000281429 0.000269407 0.00027356 0.000246011 0.000246119 0.000204141 0.000209998 0.000246119 0.000247582 0.000209998 0.000216597 0.000204141 0.000209998 0.000159384 0.000170608 0.000209998 0.000216597 0.000170608 0.000182057 0.000247582 0.000250342 0.000216597 0.000223864 0.000250342 0.000254234 0.000223864 0.000231655 0.000216597 0.000223864 0.000182057 0.000193618 0.000223864 0.000231655 0.000193618 0.000205146 0.000159384 0.000170608 0.000113245 0.00012941 0.000170608 0.000182057 0.00012941 0.00014532 0.000113245 0.00012941 6.71524e-05 8.78088e-05 0.00012941 0.00014532 8.78088e-05 0.000107742 0.000182057 0.000193618 0.00014532 0.000160835 0.000193618 0.000205146 0.000160835 0.000175812 0.00014532 0.000160835 0.000107742 0.000126808 0.000160835 0.000175812 0.000126808 0.000144886 0.000254234 0.000258997 0.000231655 0.000239742 0.000258997 0.000264247 0.000239742 0.000247785 0.000231655 0.000239742 0.000205146 0.00021644 0.000239742 0.000247785 0.00021644 0.000227219 0.000264247 0.000269407 0.000247785 0.000255275 0.000269407 0.00027356 0.000255275 0.000261452 0.000247785 0.000255275 0.000227219 0.000237089 0.000255275 0.000261452 0.000237089 0.000245504 0.000205146 0.00021644 0.000175812 0.000190088 0.00021644 0.000227219 0.000190088 0.000203464 0.000175812 0.000190088 0.000144886 0.000161864 0.000190088 0.000203464 0.000161864 0.000177644 0.000227219 0.000237089 0.000203464 0.000215691 0.000237089 0.000245504 0.000215691 0.000226459 0.000203464 0.000215691 0.000177644 0.000192139 0.000215691 0.000226459 0.000192139 0.000205284 -0.000105516 -8.30568e-05 -0.000202675 -0.000171683 -8.30568e-05 -6.14195e-05 -0.000171683 -0.000141909 -0.000202675 -0.000171683 -0.000290618 -0.00025245 -0.000171683 -0.000141909 -0.00025245 -0.00021563 -6.14195e-05 -4.01067e-05 -0.000141909 -0.000112984 -4.01067e-05 -1.87423e-05 -0.000112984 -8.46761e-05 -0.000141909 -0.000112984 -0.00021563 -0.000180027 -0.000112984 -8.46761e-05 -0.000180027 -0.000145528 -0.000290618 -0.00025245 -0.000367785 -0.000323717 -0.00025245 -0.00021563 -0.000323717 -0.000281005 -0.000367785 -0.000323717 -0.000433009 -0.000384253 -0.000323717 -0.000281005 -0.000384253 -0.000336845 -0.00021563 -0.000180027 -0.000281005 -0.000239731 -0.000180027 -0.000145528 -0.000239731 -0.000199877 -0.000281005 -0.000239731 -0.000336845 -0.00029105 -0.000239731 -0.000199877 -0.00029105 -0.000246721 -1.87423e-05 2.79487e-06 -8.46761e-05 -5.68958e-05 2.79487e-06 2.44236e-05 -5.68958e-05 -2.96904e-05 -8.46761e-05 -5.68958e-05 -0.000145528 -0.000112133 -5.68958e-05 -2.96904e-05 -0.000112133 -7.99168e-05 2.44236e-05 4.59509e-05 -2.96904e-05 -3.1719e-06 4.59509e-05 6.71524e-05 -3.1719e-06 2.25064e-05 -2.96904e-05 -3.1719e-06 -7.99168e-05 -4.8967e-05 -3.1719e-06 2.25064e-05 -4.8967e-05 -1.93525e-05 -0.000145528 -0.000112133 -0.000199877 -0.000161532 -0.000112133 -7.99168e-05 -0.000161532 -0.000124939 -0.000199877 -0.000161532 -0.000246721 -0.000204081 -0.000161532 -0.000124939 -0.000204081 -0.000163614 -7.99168e-05 -4.8967e-05 -0.000124939 -9.01721e-05 -4.8967e-05 -1.93525e-05 -9.01721e-05 -5.72129e-05 -0.000124939 -9.01721e-05 -0.000163614 -0.000125768 -9.01721e-05 -5.72129e-05 -0.000125768 -8.99758e-05 -0.000433009 -0.000384253 -0.000485347 -0.00043297 -0.000384253 -0.000336845 -0.00043297 -0.000381916 -0.000485347 -0.00043297 -0.000523941 -0.000468755 -0.00043297 -0.000381916 -0.000468755 -0.00041463 -0.000336845 -0.00029105 -0.000381916 -0.000332837 -0.00029105 -0.000246721 -0.000332837 -0.000285462 -0.000381916 -0.000332837 -0.00041463 -0.000362704 -0.000332837 -0.000285462 -0.000362704 -0.000314496 -0.000246721 -0.000204081 -0.000285462 -0.000238802 -0.000204081 -0.000163614 -0.000238802 -0.000195226 -0.000285462 -0.000238802 -0.000314496 -0.000266654 -0.000238802 -0.000195226 -0.000266654 -0.000218456 -0.000163614 -0.000125768 -0.000195226 -0.000154741 -0.000125768 -8.99758e-05 -0.000154741 -0.000116826 -0.000195226 -0.000154741 -0.000218456 -0.000178061 -0.000154741 -0.000116826 -0.000178061 -0.000135205 -0.000218456 -0.000178061 -0.000237826 -0.000184616 -0.000178061 -0.000135205 -0.000184616 -0.000143137 -0.000237826 -0.000184616 -0.000206321 -0.000176377 -0.000184616 -0.000143137 -0.000176377 -0.000144166 6.71524e-05 8.78088e-05 2.25064e-05 4.71716e-05 8.78088e-05 0.000107742 4.71716e-05 7.06651e-05 2.25064e-05 4.71716e-05 -1.93525e-05 8.81231e-06 4.71716e-05 7.06651e-05 8.81231e-06 3.5402e-05 0.000107742 0.000126808 7.06651e-05 9.28599e-05 0.000126808 0.000144886 9.28599e-05 0.000113665 7.06651e-05 9.28599e-05 3.5402e-05 6.02995e-05 9.28599e-05 0.000113665 6.02995e-05 8.3453e-05 -1.93525e-05 8.81231e-06 -5.72129e-05 -2.60368e-05 8.81231e-06 3.5402e-05 -2.60368e-05 3.20251e-06 -5.72129e-05 -2.60368e-05 -8.99758e-05 -5.62484e-05 -2.60368e-05 3.20251e-06 -5.62484e-05 -2.47223e-05 3.5402e-05 6.02995e-05 3.20251e-06 3.03939e-05 6.02995e-05 8.3453e-05 3.03939e-05 5.55132e-05 3.20251e-06 3.03939e-05 -2.47223e-05 4.3289e-06 3.03939e-05 5.55132e-05 4.3289e-06 3.10125e-05 0.000144886 0.000161864 0.000113665 0.000133036 0.000161864 0.000177644 0.000133036 0.00015099 0.000113665 0.000133036 8.3453e-05 0.000104896 0.000133036 0.00015099 0.000104896 0.000124765 0.000177644 0.000192139 0.00015099 0.000167608 0.000192139 0.000205284 0.000167608 0.000183064 0.00015099 0.000167608 0.000124765 0.000143312 0.000167608 0.000183064 0.000143312 0.000160929 8.3453e-05 0.000104896 5.55132e-05 7.8693e-05 0.000104896 0.000124765 7.8693e-05 0.000100196 5.55132e-05 7.8693e-05 3.10125e-05 5.55795e-05 7.8693e-05 0.000100196 5.55795e-05 7.84161e-05 0.000124765 0.000143312 0.000100196 0.000120434 0.000143312 0.000160929 0.000120434 0.000139997 0.000100196 0.000120434 7.84161e-05 0.000100071 0.000120434 0.000139997 0.000100071 0.000121302 -8.99758e-05 -5.62484e-05 -0.000116826 -8.04917e-05 -5.62484e-05 -2.47223e-05 -8.04917e-05 -4.72313e-05 -0.000116826 -8.04917e-05 -0.000135205 -9.74618e-05 -8.04917e-05 -4.72313e-05 -9.74618e-05 -6.34042e-05 -2.47223e-05 4.3289e-06 -4.72313e-05 -1.68446e-05 4.3289e-06 3.10125e-05 -1.68446e-05 1.09629e-05 -4.72313e-05 -1.68446e-05 -6.34042e-05 -3.23242e-05 -1.68446e-05 1.09629e-05 -3.23242e-05 -3.84686e-06 -0.000135205 -9.74618e-05 -0.000143137 -0.000106681 -9.74618e-05 -6.34042e-05 -0.000106681 -7.28834e-05 -0.000143137 -0.000106681 -0.000144166 -0.00010932 -0.000106681 -7.28834e-05 -0.00010932 -7.59525e-05 -6.34042e-05 -3.23242e-05 -7.28834e-05 -4.16705e-05 -3.23242e-05 -3.84686e-06 -4.16705e-05 -1.29013e-05 -7.28834e-05 -4.16705e-05 -7.59525e-05 -4.47797e-05 -4.16705e-05 -1.29013e-05 -4.47797e-05 -1.59433e-05 3.10125e-05 5.55795e-05 1.09629e-05 3.65541e-05 5.55795e-05 7.84161e-05 3.65541e-05 6.04091e-05 1.09629e-05 3.65541e-05 -3.84686e-06 2.24125e-05 3.65541e-05 6.04091e-05 2.24125e-05 4.69712e-05 7.84161e-05 0.000100071 6.04091e-05 8.31821e-05 0.000100071 0.000121302 8.31821e-05 0.000105756 6.04091e-05 8.31821e-05 4.69712e-05 7.0546e-05 8.31821e-05 0.000105756 7.0546e-05 9.41034e-05 -3.84686e-06 2.24125e-05 -1.29013e-05 1.37143e-05 2.24125e-05 4.69712e-05 1.37143e-05 3.86792e-05 -1.29013e-05 1.37143e-05 -1.59433e-05 1.07805e-05 1.37143e-05 3.86792e-05 1.07805e-05 3.58773e-05 4.69712e-05 7.0546e-05 3.86792e-05 6.27339e-05 7.0546e-05 9.41034e-05 6.27339e-05 8.68896e-05 3.86792e-05 6.27339e-05 3.58773e-05 6.00915e-05 6.27339e-05 8.68896e-05 6.00915e-05 8.44478e-05 -0.000641702 -0.000632708 -0.00063472 -0.000625638 -0.000632708 -0.000620124 -0.000625638 -0.00061305 -0.00063472 -0.000625638 -0.000613734 -0.000604414 -0.000625638 -0.00061305 -0.000604414 -0.000591844 -0.000620124 -0.000605343 -0.00061305 -0.000598334 -0.000605343 -0.000589503 -0.000598334 -0.000582633 -0.00061305 -0.000598334 -0.000591844 -0.000577362 -0.000598334 -0.000582633 -0.000577362 -0.000562118 -0.000613734 -0.000604414 -0.000578627 -0.000569017 -0.000604414 -0.000591844 -0.000569017 -0.000556572 -0.000578627 -0.000569017 -0.000529252 -0.000519448 -0.000569017 -0.000556572 -0.000519448 -0.000507378 -0.000591844 -0.000577362 -0.000556572 -0.000542599 -0.000577362 -0.000562118 -0.000542599 -0.000528201 -0.000556572 -0.000542599 -0.000507378 -0.000494321 -0.000542599 -0.000528201 -0.000494321 -0.000481269 -0.000529252 -0.000519448 -0.000465527 -0.000455809 -0.000519448 -0.000507378 -0.000455809 -0.000444554 -0.000465527 -0.000455809 -0.000387209 -0.000378229 -0.000455809 -0.000444554 -0.000378229 -0.000368737 -0.000507378 -0.000494321 -0.000444554 -0.000433007 -0.000494321 -0.000481269 -0.000433007 -0.000421933 -0.000444554 -0.000433007 -0.000368737 -0.000359451 -0.000433007 -0.000421933 -0.000359451 -0.000351102 -0.000368737 -0.000359451 -0.000280787 -0.0002747 -0.000359451 -0.000351102 -0.0002747 -0.000270064 -0.000280787 -0.0002747 -0.000181859 -0.000180321 -0.0002747 -0.000270064 -0.000180321 -0.000180556 -0.000181859 -0.000180321 -7.39671e-05 -7.84642e-05 -0.000180321 -0.000180556 -7.84642e-05 -8.4708e-05 -7.39671e-05 -7.84642e-05 4.04876e-05 2.84618e-05 -7.84642e-05 -8.4708e-05 2.84618e-05 1.47591e-05 -0.000589503 -0.000573535 -0.000582633 -0.000566871 -0.000573535 -0.000558151 -0.000566871 -0.000551727 -0.000582633 -0.000566871 -0.000562118 -0.00054698 -0.000566871 -0.000551727 -0.00054698 -0.000532556 -0.000558151 -0.000543847 -0.000551727 -0.00053767 -0.000543847 -0.000530875 -0.00053767 -0.000524933 -0.000551727 -0.00053767 -0.000532556 -0.000519245 -0.00053767 -0.000524933 -0.000519245 -0.000507221 -0.000562118 -0.00054698 -0.000528201 -0.000514152 -0.00054698 -0.000532556 -0.000514152 -0.000500953 -0.000528201 -0.000514152 -0.000481269 -0.000468856 -0.000514152 -0.000500953 -0.000468856 -0.000457447 -0.000532556 -0.000519245 -0.000500953 -0.000488901 -0.000519245 -0.000507221 -0.000488901 -0.000478083 -0.000500953 -0.000488901 -0.000457447 -0.000447203 -0.000488901 -0.000478083 -0.000447203 -0.000438114 -0.000530875 -0.000519331 -0.000524933 -0.000513603 -0.000519331 -0.000509181 -0.000513603 -0.000503638 -0.000524933 -0.000513603 -0.000507221 -0.000496539 -0.000513603 -0.000503638 -0.000496539 -0.000487137 -0.000509181 -0.000500269 -0.000503638 -0.000494879 -0.000500269 -0.000492335 -0.000494879 -0.000487065 -0.000503638 -0.000494879 -0.000487137 -0.000478841 -0.000494879 -0.000487065 -0.000478841 -0.000471393 -0.000507221 -0.000496539 -0.000478083 -0.000468501 -0.000496539 -0.000487137 -0.000468501 -0.000460053 -0.000478083 -0.000468501 -0.000438114 -0.000430105 -0.000468501 -0.000460053 -0.000430105 -0.000423023 -0.000487137 -0.000478841 -0.000460053 -0.000452548 -0.000478841 -0.000471393 -0.000452548 -0.000445729 -0.000460053 -0.000452548 -0.000423023 -0.000416655 -0.000452548 -0.000445729 -0.000416655 -0.000410746 -0.000481269 -0.000468856 -0.000421933 -0.000411802 -0.000468856 -0.000457447 -0.000411802 -0.000402828 -0.000421933 -0.000411802 -0.000351102 -0.000344021 -0.000411802 -0.000402828 -0.000344021 -0.000338189 -0.000457447 -0.000447203 -0.000402828 -0.000394991 -0.000447203 -0.000438114 -0.000394991 -0.000388184 -0.000402828 -0.000394991 -0.000338189 -0.000333409 -0.000394991 -0.000388184 -0.000333409 -0.000329459 -0.000351102 -0.000344021 -0.000270064 -0.000266916 -0.000344021 -0.000338189 -0.000266916 -0.000264983 -0.000270064 -0.000266916 -0.000180556 -0.000182269 -0.000266916 -0.000264983 -0.000182269 -0.00018506 -0.000338189 -0.000333409 -0.000264983 -0.000263939 -0.000333409 -0.000329459 -0.000263939 -0.000263415 -0.000264983 -0.000263939 -0.00018506 -0.000188412 -0.000263939 -0.000263415 -0.000188412 -0.000191833 -0.000438114 -0.000430105 -0.000388184 -0.00038224 -0.000430105 -0.000423023 -0.00038224 -0.000376949 -0.000388184 -0.00038224 -0.000329459 -0.000326077 -0.00038224 -0.000376949 -0.000326077 -0.000322998 -0.000423023 -0.000416655 -0.000376949 -0.000372076 -0.000416655 -0.000410746 -0.000372076 -0.000367374 -0.000376949 -0.000372076 -0.000322998 -0.000319978 -0.000372076 -0.000367374 -0.000319978 -0.000316783 -0.000329459 -0.000326077 -0.000263415 -0.000263066 -0.000326077 -0.000322998 -0.000263066 -0.000262596 -0.000263415 -0.000263066 -0.000191833 -0.000194931 -0.000263066 -0.000262596 -0.000194931 -0.000197402 -0.000322998 -0.000319978 -0.000262596 -0.000261761 -0.000319978 -0.000316783 -0.000261761 -0.000260356 -0.000262596 -0.000261761 -0.000197402 -0.000199029 -0.000261761 -0.000260356 -0.000199029 -0.000199656 -0.000492335 -0.000485029 -0.000487065 -0.000479851 -0.000485029 -0.000477924 -0.000479851 -0.000472814 -0.000487065 -0.000479851 -0.000471393 -0.000464459 -0.000479851 -0.000472814 -0.000464459 -0.000457632 -0.000477924 -0.000470509 -0.000472814 -0.000465453 -0.000470509 -0.000462192 -0.000465453 -0.000457185 -0.000472814 -0.000465453 -0.000457632 -0.000450436 -0.000465453 -0.000457185 -0.000450436 -0.000442319 -0.000471393 -0.000464459 -0.000445729 -0.000439278 -0.000464459 -0.000457632 -0.000439278 -0.000432818 -0.000445729 -0.000439278 -0.000410746 -0.000405002 -0.000439278 -0.000432818 -0.000405002 -0.000399085 -0.000457632 -0.000450436 -0.000432818 -0.000425911 -0.000450436 -0.000442319 -0.000425911 -0.000418057 -0.000432818 -0.000425911 -0.000399085 -0.000392612 -0.000425911 -0.000418057 -0.000392612 -0.000385148 -0.000462192 -0.000452281 -0.000457185 -0.000447331 -0.000452281 -0.000439974 -0.000447331 -0.000435106 -0.000457185 -0.000447331 -0.000442319 -0.00043264 -0.000447331 -0.000435106 -0.00043264 -0.000420659 -0.000439974 -0.000424329 -0.000435106 -0.000419585 -0.000424329 -0.000404232 -0.000419585 -0.000399677 -0.000435106 -0.000419585 -0.000420659 -0.000405508 -0.000419585 -0.000399677 -0.000405508 -0.000386161 -0.000442319 -0.00043264 -0.000418057 -0.000408676 -0.00043264 -0.000420659 -0.000408676 -0.000397102 -0.000418057 -0.000408676 -0.000385148 -0.000376198 -0.000408676 -0.000397102 -0.000376198 -0.000365194 -0.000420659 -0.000405508 -0.000397102 -0.000382558 -0.000405508 -0.000386161 -0.000382558 -0.000364124 -0.000397102 -0.000382558 -0.000365194 -0.000351477 -0.000382558 -0.000364124 -0.000351477 -0.000334274 -0.000410746 -0.000405002 -0.000367374 -0.000362579 -0.000405002 -0.000399085 -0.000362579 -0.000357402 -0.000367374 -0.000362579 -0.000316783 -0.000313188 -0.000362579 -0.000357402 -0.000313188 -0.000308962 -0.000399085 -0.000392612 -0.000357402 -0.000351526 -0.000392612 -0.000385148 -0.000351526 -0.000344598 -0.000357402 -0.000351526 -0.000308962 -0.000303863 -0.000351526 -0.000344598 -0.000303863 -0.000297629 -0.000316783 -0.000313188 -0.000260356 -0.000258205 -0.000313188 -0.000308962 -0.000258205 -0.000255144 -0.000260356 -0.000258205 -0.000199656 -0.000199168 -0.000258205 -0.000255144 -0.000199168 -0.000197473 -0.000308962 -0.000303863 -0.000255144 -0.000251011 -0.000303863 -0.000297629 -0.000251011 -0.000245637 -0.000255144 -0.000251011 -0.000197473 -0.000194488 -0.000251011 -0.000245637 -0.000194488 -0.000190137 -0.000385148 -0.000376198 -0.000344598 -0.00033622 -0.000376198 -0.000365194 -0.00033622 -0.000325943 -0.000344598 -0.00033622 -0.000297629 -0.00028997 -0.00033622 -0.000325943 -0.00028997 -0.000280571 -0.000365194 -0.000351477 -0.000325943 -0.000313255 -0.000351477 -0.000334274 -0.000313255 -0.000297558 -0.000325943 -0.000313255 -0.000280571 -0.000269084 -0.000313255 -0.000297558 -0.000269084 -0.000255112 -0.000297629 -0.00028997 -0.000245637 -0.000238845 -0.00028997 -0.000280571 -0.000238845 -0.00023046 -0.000245637 -0.000238845 -0.000190137 -0.000184353 -0.000238845 -0.00023046 -0.000184353 -0.000177097 -0.000280571 -0.000269084 -0.00023046 -0.000220309 -0.000269084 -0.000255112 -0.000220309 -0.000208