# vtk DataFile Version 3.0
#This file was generated by the deal.II library on 2022/11/17 at 20:21:10
ASCII
DATASET UNSTRUCTURED_GRID

POINTS 4096 double
0 0.5 0
0.03125 0.5 0
0 0.53125 0
0.03125 0.53125 0
0.03125 0.5 0
0.0625 0.5 0
0.03125 0.53125 0
0.0625 0.53125 0
0 0.53125 0
0.03125 0.53125 0
0 0.5625 0
0.03125 0.5625 0
0.03125 0.53125 0
0.0625 0.53125 0
0.03125 0.5625 0
0.0625 0.5625 0
0.0625 0.5 0
0.09375 0.5 0
0.0625 0.53125 0
0.09375 0.53125 0
0.09375 0.5 0
0.125 0.5 0
0.09375 0.53125 0
0.125 0.53125 0
0.0625 0.53125 0
0.09375 0.53125 0
0.0625 0.5625 0
0.09375 0.5625 0
0.09375 0.53125 0
0.125 0.53125 0
0.09375 0.5625 0
0.125 0.5625 0
0 0.5625 0
0.03125 0.5625 0
0 0.59375 0
0.03125 0.59375 0
0.03125 0.5625 0
0.0625 0.5625 0
0.03125 0.59375 0
0.0625 0.59375 0
0 0.59375 0
0.03125 0.59375 0
0 0.625 0
0.03125 0.625 0
0.03125 0.59375 0
0.0625 0.59375 0
0.03125 0.625 0
0.0625 0.625 0
0.0625 0.5625 0
0.09375 0.5625 0
0.0625 0.59375 0
0.09375 0.59375 0
0.09375 0.5625 0
0.125 0.5625 0
0.09375 0.59375 0
0.125 0.59375 0
0.0625 0.59375 0
0.09375 0.59375 0
0.0625 0.625 0
0.09375 0.625 0
0.09375 0.59375 0
0.125 0.59375 0
0.09375 0.625 0
0.125 0.625 0
0.125 0.5 0
0.15625 0.5 0
0.125 0.53125 0
0.15625 0.53125 0
0.15625 0.5 0
0.1875 0.5 0
0.15625 0.53125 0
0.1875 0.53125 0
0.125 0.53125 0
0.15625 0.53125 0
0.125 0.5625 0
0.15625 0.5625 0
0.15625 0.53125 0
0.1875 0.53125 0
0.15625 0.5625 0
0.1875 0.5625 0
0.1875 0.5 0
0.21875 0.5 0
0.1875 0.53125 0
0.21875 0.53125 0
0.21875 0.5 0
0.25 0.5 0
0.21875 0.53125 0
0.25 0.53125 0
0.1875 0.53125 0
0.21875 0.53125 0
0.1875 0.5625 0
0.21875 0.5625 0
0.21875 0.53125 0
0.25 0.53125 0
0.21875 0.5625 0
0.25 0.5625 0
0.125 0.5625 0
0.15625 0.5625 0
0.125 0.59375 0
0.15625 0.59375 0
0.15625 0.5625 0
0.1875 0.5625 0
0.15625 0.59375 0
0.1875 0.59375 0
0.125 0.59375 0
0.15625 0.59375 0
0.125 0.625 0
0.15625 0.625 0
0.15625 0.59375 0
0.1875 0.59375 0
0.15625 0.625 0
0.1875 0.625 0
0.1875 0.5625 0
0.21875 0.5625 0
0.1875 0.59375 0
0.21875 0.59375 0
0.21875 0.5625 0
0.25 0.5625 0
0.21875 0.59375 0
0.25 0.59375 0
0.1875 0.59375 0
0.21875 0.59375 0
0.1875 0.625 0
0.21875 0.625 0
0.21875 0.59375 0
0.25 0.59375 0
0.21875 0.625 0
0.25 0.625 0
0 0.625 0
0.03125 0.625 0
0 0.65625 0
0.03125 0.65625 0
0.03125 0.625 0
0.0625 0.625 0
0.03125 0.65625 0
0.0625 0.65625 0
0 0.65625 0
0.03125 0.65625 0
0 0.6875 0
0.03125 0.6875 0
0.03125 0.65625 0
0.0625 0.65625 0
0.03125 0.6875 0
0.0625 0.6875 0
0.0625 0.625 0
0.09375 0.625 0
0.0625 0.65625 0
0.09375 0.65625 0
0.09375 0.625 0
0.125 0.625 0
0.09375 0.65625 0
0.125 0.65625 0
0.0625 0.65625 0
0.09375 0.65625 0
0.0625 0.6875 0
0.09375 0.6875 0
0.09375 0.65625 0
0.125 0.65625 0
0.09375 0.6875 0
0.125 0.6875 0
0 0.6875 0
0.03125 0.6875 0
0 0.71875 0
0.03125 0.71875 0
0.03125 0.6875 0
0.0625 0.6875 0
0.03125 0.71875 0
0.0625 0.71875 0
0 0.71875 0
0.03125 0.71875 0
0 0.75 0
0.03125 0.75 0
0.03125 0.71875 0
0.0625 0.71875 0
0.03125 0.75 0
0.0625 0.75 0
0.0625 0.6875 0
0.09375 0.6875 0
0.0625 0.71875 0
0.09375 0.71875 0
0.09375 0.6875 0
0.125 0.6875 0
0.09375 0.71875 0
0.125 0.71875 0
0.0625 0.71875 0
0.09375 0.71875 0
0.0625 0.75 0
0.09375 0.75 0
0.09375 0.71875 0
0.125 0.71875 0
0.09375 0.75 0
0.125 0.75 0
0.125 0.625 0
0.15625 0.625 0
0.125 0.65625 0
0.15625 0.65625 0
0.15625 0.625 0
0.1875 0.625 0
0.15625 0.65625 0
0.1875 0.65625 0
0.125 0.65625 0
0.15625 0.65625 0
0.125 0.6875 0
0.15625 0.6875 0
0.15625 0.65625 0
0.1875 0.65625 0
0.15625 0.6875 0
0.1875 0.6875 0
0.1875 0.625 0
0.21875 0.625 0
0.1875 0.65625 0
0.21875 0.65625 0
0.21875 0.625 0
0.25 0.625 0
0.21875 0.65625 0
0.25 0.65625 0
0.1875 0.65625 0
0.21875 0.65625 0
0.1875 0.6875 0
0.21875 0.6875 0
0.21875 0.65625 0
0.25 0.65625 0
0.21875 0.6875 0
0.25 0.6875 0
0.125 0.6875 0
0.15625 0.6875 0
0.125 0.71875 0
0.15625 0.71875 0
0.15625 0.6875 0
0.1875 0.6875 0
0.15625 0.71875 0
0.1875 0.71875 0
0.125 0.71875 0
0.15625 0.71875 0
0.125 0.75 0
0.15625 0.75 0
0.15625 0.71875 0
0.1875 0.71875 0
0.15625 0.75 0
0.1875 0.75 0
0.1875 0.6875 0
0.21875 0.6875 0
0.1875 0.71875 0
0.21875 0.71875 0
0.21875 0.6875 0
0.25 0.6875 0
0.21875 0.71875 0
0.25 0.71875 0
0.1875 0.71875 0
0.21875 0.71875 0
0.1875 0.75 0
0.21875 0.75 0
0.21875 0.71875 0
0.25 0.71875 0
0.21875 0.75 0
0.25 0.75 0
0.25 0.5 0
0.28125 0.5 0
0.25 0.53125 0
0.28125 0.53125 0
0.28125 0.5 0
0.3125 0.5 0
0.28125 0.53125 0
0.3125 0.53125 0
0.25 0.53125 0
0.28125 0.53125 0
0.25 0.5625 0
0.28125 0.5625 0
0.28125 0.53125 0
0.3125 0.53125 0
0.28125 0.5625 0
0.3125 0.5625 0
0.3125 0.5 0
0.34375 0.5 0
0.3125 0.53125 0
0.34375 0.53125 0
0.34375 0.5 0
0.375 0.5 0
0.34375 0.53125 0
0.375 0.53125 0
0.3125 0.53125 0
0.34375 0.53125 0
0.3125 0.5625 0
0.34375 0.5625 0
0.34375 0.53125 0
0.375 0.53125 0
0.34375 0.5625 0
0.375 0.5625 0
0.25 0.5625 0
0.28125 0.5625 0
0.25 0.59375 0
0.28125 0.59375 0
0.28125 0.5625 0
0.3125 0.5625 0
0.28125 0.59375 0
0.3125 0.59375 0
0.25 0.59375 0
0.28125 0.59375 0
0.25 0.625 0
0.28125 0.625 0
0.28125 0.59375 0
0.3125 0.59375 0
0.28125 0.625 0
0.3125 0.625 0
0.3125 0.5625 0
0.34375 0.5625 0
0.3125 0.59375 0
0.34375 0.59375 0
0.34375 0.5625 0
0.375 0.5625 0
0.34375 0.59375 0
0.375 0.59375 0
0.3125 0.59375 0
0.34375 0.59375 0
0.3125 0.625 0
0.34375 0.625 0
0.34375 0.59375 0
0.375 0.59375 0
0.34375 0.625 0
0.375 0.625 0
0.375 0.5 0
0.40625 0.5 0
0.375 0.53125 0
0.40625 0.53125 0
0.40625 0.5 0
0.4375 0.5 0
0.40625 0.53125 0
0.4375 0.53125 0
0.375 0.53125 0
0.40625 0.53125 0
0.375 0.5625 0
0.40625 0.5625 0
0.40625 0.53125 0
0.4375 0.53125 0
0.40625 0.5625 0
0.4375 0.5625 0
0.4375 0.5 0
0.46875 0.5 0
0.4375 0.53125 0
0.46875 0.53125 0
0.46875 0.5 0
0.5 0.5 0
0.46875 0.53125 0
0.5 0.53125 0
0.4375 0.53125 0
0.46875 0.53125 0
0.4375 0.5625 0
0.46875 0.5625 0
0.46875 0.53125 0
0.5 0.53125 0
0.46875 0.5625 0
0.5 0.5625 0
0.375 0.5625 0
0.40625 0.5625 0
0.375 0.59375 0
0.40625 0.59375 0
0.40625 0.5625 0
0.4375 0.5625 0
0.40625 0.59375 0
0.4375 0.59375 0
0.375 0.59375 0
0.40625 0.59375 0
0.375 0.625 0
0.40625 0.625 0
0.40625 0.59375 0
0.4375 0.59375 0
0.40625 0.625 0
0.4375 0.625 0
0.4375 0.5625 0
0.46875 0.5625 0
0.4375 0.59375 0
0.46875 0.59375 0
0.46875 0.5625 0
0.5 0.5625 0
0.46875 0.59375 0
0.5 0.59375 0
0.4375 0.59375 0
0.46875 0.59375 0
0.4375 0.625 0
0.46875 0.625 0
0.46875 0.59375 0
0.5 0.59375 0
0.46875 0.625 0
0.5 0.625 0
0.25 0.625 0
0.28125 0.625 0
0.25 0.65625 0
0.28125 0.65625 0
0.28125 0.625 0
0.3125 0.625 0
0.28125 0.65625 0
0.3125 0.65625 0
0.25 0.65625 0
0.28125 0.65625 0
0.25 0.6875 0
0.28125 0.6875 0
0.28125 0.65625 0
0.3125 0.65625 0
0.28125 0.6875 0
0.3125 0.6875 0
0.3125 0.625 0
0.34375 0.625 0
0.3125 0.65625 0
0.34375 0.65625 0
0.34375 0.625 0
0.375 0.625 0
0.34375 0.65625 0
0.375 0.65625 0
0.3125 0.65625 0
0.34375 0.65625 0
0.3125 0.6875 0
0.34375 0.6875 0
0.34375 0.65625 0
0.375 0.65625 0
0.34375 0.6875 0
0.375 0.6875 0
0.25 0.6875 0
0.28125 0.6875 0
0.25 0.71875 0
0.28125 0.71875 0
0.28125 0.6875 0
0.3125 0.6875 0
0.28125 0.71875 0
0.3125 0.71875 0
0.25 0.71875 0
0.28125 0.71875 0
0.25 0.75 0
0.28125 0.75 0
0.28125 0.71875 0
0.3125 0.71875 0
0.28125 0.75 0
0.3125 0.75 0
0.3125 0.6875 0
0.34375 0.6875 0
0.3125 0.71875 0
0.34375 0.71875 0
0.34375 0.6875 0
0.375 0.6875 0
0.34375 0.71875 0
0.375 0.71875 0
0.3125 0.71875 0
0.34375 0.71875 0
0.3125 0.75 0
0.34375 0.75 0
0.34375 0.71875 0
0.375 0.71875 0
0.34375 0.75 0
0.375 0.75 0
0.375 0.625 0
0.40625 0.625 0
0.375 0.65625 0
0.40625 0.65625 0
0.40625 0.625 0
0.4375 0.625 0
0.40625 0.65625 0
0.4375 0.65625 0
0.375 0.65625 0
0.40625 0.65625 0
0.375 0.6875 0
0.40625 0.6875 0
0.40625 0.65625 0
0.4375 0.65625 0
0.40625 0.6875 0
0.4375 0.6875 0
0.4375 0.625 0
0.46875 0.625 0
0.4375 0.65625 0
0.46875 0.65625 0
0.46875 0.625 0
0.5 0.625 0
0.46875 0.65625 0
0.5 0.65625 0
0.4375 0.65625 0
0.46875 0.65625 0
0.4375 0.6875 0
0.46875 0.6875 0
0.46875 0.65625 0
0.5 0.65625 0
0.46875 0.6875 0
0.5 0.6875 0
0.375 0.6875 0
0.40625 0.6875 0
0.375 0.71875 0
0.40625 0.71875 0
0.40625 0.6875 0
0.4375 0.6875 0
0.40625 0.71875 0
0.4375 0.71875 0
0.375 0.71875 0
0.40625 0.71875 0
0.375 0.75 0
0.40625 0.75 0
0.40625 0.71875 0
0.4375 0.71875 0
0.40625 0.75 0
0.4375 0.75 0
0.4375 0.6875 0
0.46875 0.6875 0
0.4375 0.71875 0
0.46875 0.71875 0
0.46875 0.6875 0
0.5 0.6875 0
0.46875 0.71875 0
0.5 0.71875 0
0.4375 0.71875 0
0.46875 0.71875 0
0.4375 0.75 0
0.46875 0.75 0
0.46875 0.71875 0
0.5 0.71875 0
0.46875 0.75 0
0.5 0.75 0
0 0.75 0
0.03125 0.75 0
0 0.78125 0
0.03125 0.78125 0
0.03125 0.75 0
0.0625 0.75 0
0.03125 0.78125 0
0.0625 0.78125 0
0 0.78125 0
0.03125 0.78125 0
0 0.8125 0
0.03125 0.8125 0
0.03125 0.78125 0
0.0625 0.78125 0
0.03125 0.8125 0
0.0625 0.8125 0
0.0625 0.75 0
0.09375 0.75 0
0.0625 0.78125 0
0.09375 0.78125 0
0.09375 0.75 0
0.125 0.75 0
0.09375 0.78125 0
0.125 0.78125 0
0.0625 0.78125 0
0.09375 0.78125 0
0.0625 0.8125 0
0.09375 0.8125 0
0.09375 0.78125 0
0.125 0.78125 0
0.09375 0.8125 0
0.125 0.8125 0
0 0.8125 0
0.03125 0.8125 0
0 0.84375 0
0.03125 0.84375 0
0.03125 0.8125 0
0.0625 0.8125 0
0.03125 0.84375 0
0.0625 0.84375 0
0 0.84375 0
0.03125 0.84375 0
0 0.875 0
0.03125 0.875 0
0.03125 0.84375 0
0.0625 0.84375 0
0.03125 0.875 0
0.0625 0.875 0
0.0625 0.8125 0
0.09375 0.8125 0
0.0625 0.84375 0
0.09375 0.84375 0
0.09375 0.8125 0
0.125 0.8125 0
0.09375 0.84375 0
0.125 0.84375 0
0.0625 0.84375 0
0.09375 0.84375 0
0.0625 0.875 0
0.09375 0.875 0
0.09375 0.84375 0
0.125 0.84375 0
0.09375 0.875 0
0.125 0.875 0
0.125 0.75 0
0.15625 0.75 0
0.125 0.78125 0
0.15625 0.78125 0
0.15625 0.75 0
0.1875 0.75 0
0.15625 0.78125 0
0.1875 0.78125 0
0.125 0.78125 0
0.15625 0.78125 0
0.125 0.8125 0
0.15625 0.8125 0
0.15625 0.78125 0
0.1875 0.78125 0
0.15625 0.8125 0
0.1875 0.8125 0
0.1875 0.75 0
0.21875 0.75 0
0.1875 0.78125 0
0.21875 0.78125 0
0.21875 0.75 0
0.25 0.75 0
0.21875 0.78125 0
0.25 0.78125 0
0.1875 0.78125 0
0.21875 0.78125 0
0.1875 0.8125 0
0.21875 0.8125 0
0.21875 0.78125 0
0.25 0.78125 0
0.21875 0.8125 0
0.25 0.8125 0
0.125 0.8125 0
0.15625 0.8125 0
0.125 0.84375 0
0.15625 0.84375 0
0.15625 0.8125 0
[...]
POINT_DATA 4096
SCALARS x_dis double 1
LOOKUP_TABLE default
2.72641e-09 1.60255e-09 5.01149e-09 2.93895e-09 1.60255e-09 1.11215e-09 2.93895e-09 2.03144e-09 5.01149e-09 2.93895e-09 9.21447e-09 5.39097e-09 2.93895e-09 2.03144e-09 5.39097e-09 3.71082e-09 1.11215e-09 8.54371e-10 2.03144e-09 1.55213e-09 8.54371e-10 6.84556e-10 1.55213e-09 1.2353e-09 2.03144e-09 1.55213e-09 3.71082e-09 2.81891e-09 1.55213e-09 1.2353e-09 2.81891e-09 2.22707e-09 9.21447e-09 5.39097e-09 1.69479e-08 9.89147e-09 5.39097e-09 3.71082e-09 9.89147e-09 6.77942e-09 1.69479e-08 9.89147e-09 3.11829e-08 1.81555e-08 9.89147e-09 6.77942e-09 1.81555e-08 1.23887e-08 3.71082e-09 2.81891e-09 6.77942e-09 5.11834e-09 2.81891e-09 2.22707e-09 5.11834e-09 4.01118e-09 6.77942e-09 5.11834e-09 1.23887e-08 9.29205e-09 5.11834e-09 4.01118e-09 9.29205e-09 7.21686e-09 6.84556e-10 5.52003e-10 1.2353e-09 9.88143e-10 5.52003e-10 4.40051e-10 9.88143e-10 7.80444e-10 1.2353e-09 9.88143e-10 2.22707e-09 1.76553e-09 9.88143e-10 7.80444e-10 1.76553e-09 1.37966e-09 4.40051e-10 3.43809e-10 7.80444e-10 6.03524e-10 3.43809e-10 2.61868e-10 6.03524e-10 4.54936e-10 7.80444e-10 6.03524e-10 1.37966e-09 1.05408e-09 6.03524e-10 4.54936e-10 1.05408e-09 7.84393e-10 2.22707e-09 1.76553e-09 4.01118e-09 3.14778e-09 1.76553e-09 1.37966e-09 3.14778e-09 2.42989e-09 4.01118e-09 3.14778e-09 7.21686e-09 5.59805e-09 3.14778e-09 2.42989e-09 5.59805e-09 4.26049e-09 1.37966e-09 1.05408e-09 2.42989e-09 1.83054e-09 1.05408e-09 7.84393e-10 1.83054e-09 1.34149e-09 2.42989e-09 1.83054e-09 4.26049e-09 3.15741e-09 1.83054e-09 1.34149e-09 3.15741e-09 2.27273e-09 3.11829e-08 1.81555e-08 5.73982e-08 3.33398e-08 1.81555e-08 1.23887e-08 3.33398e-08 2.26496e-08 5.73982e-08 3.33398e-08 1.05706e-07 6.12656e-08 3.33398e-08 2.26496e-08 6.12656e-08 4.1441e-08 1.23887e-08 9.29205e-09 2.26496e-08 1.68688e-08 9.29205e-09 7.21686e-09 1.68688e-08 1.29687e-08 2.26496e-08 1.68688e-08 4.1441e-08 3.06285e-08 1.68688e-08 1.29687e-08 3.06285e-08 2.32694e-08 1.05706e-07 6.12656e-08 1.94795e-07 1.12698e-07 6.12656e-08 4.1441e-08 1.12698e-07 7.59173e-08 1.94795e-07 1.12698e-07 3.59275e-07 2.07634e-07 1.12698e-07 7.59173e-08 2.07634e-07 1.39334e-07 4.1441e-08 3.06285e-08 7.59173e-08 5.56284e-08 3.06285e-08 2.32694e-08 5.56284e-08 4.16616e-08 7.59173e-08 5.56284e-08 1.39334e-07 1.0106e-07 5.56284e-08 4.16616e-08 1.0106e-07 7.43274e-08 7.21686e-09 5.59805e-09 1.29687e-08 9.92439e-09 5.59805e-09 4.26049e-09 9.92439e-09 7.42824e-09 1.29687e-08 9.92439e-09 2.32694e-08 1.75215e-08 9.92439e-09 7.42824e-09 1.75215e-08 1.2856e-08 4.26049e-09 3.15741e-09 7.42824e-09 5.40024e-09 3.15741e-09 2.27273e-09 5.40024e-09 3.80675e-09 7.42824e-09 5.40024e-09 1.2856e-08 9.13664e-09 5.40024e-09 3.80675e-09 9.13664e-09 6.2863e-09 2.32694e-08 1.75215e-08 4.16616e-08 3.07545e-08 1.75215e-08 1.2856e-08 3.07545e-08 2.20273e-08 4.16616e-08 3.07545e-08 7.43274e-08 5.35165e-08 3.07545e-08 2.20273e-08 5.35165e-08 3.72125e-08 1.2856e-08 9.13664e-09 2.20273e-08 1.52396e-08 9.13664e-09 6.2863e-09 1.52396e-08 1.01961e-08 2.20273e-08 1.52396e-08 3.72125e-08 2.49409e-08 1.52396e-08 1.01961e-08 2.49409e-08 1.61632e-08 2.61868e-10 1.93238e-10 4.54936e-10 3.32896e-10 1.93238e-10 1.36307e-10 3.32896e-10 2.3448e-10 4.54936e-10 3.32896e-10 7.84393e-10 5.66968e-10 3.32896e-10 2.3448e-10 5.66968e-10 3.95927e-10 1.36307e-10 8.86328e-11 2.3448e-10 1.55223e-10 8.86328e-11 4.7298e-11 1.55223e-10 8.91543e-11 2.3448e-10 1.55223e-10 3.95927e-10 2.62621e-10 1.55223e-10 8.91543e-11 2.62621e-10 1.55215e-10 7.84393e-10 5.66968e-10 1.34149e-09 9.54825e-10 5.66968e-10 3.95927e-10 9.54825e-10 6.58178e-10 1.34149e-09 9.54825e-10 2.27273e-09 1.58819e-09 9.54825e-10 6.58178e-10 1.58819e-09 1.07663e-09 3.95927e-10 2.62621e-10 6.58178e-10 4.34778e-10 2.62621e-10 1.55215e-10 4.34778e-10 2.64278e-10 6.58178e-10 4.34778e-10 1.07663e-09 7.04385e-10 4.34778e-10 2.64278e-10 7.04385e-10 4.35577e-10 4.7298e-11 1.1666e-11 8.91543e-11 2.78376e-11 1.1666e-11 -9.15039e-12 2.78376e-11 -4.26702e-11 8.91543e-11 2.78376e-11 1.55215e-10 5.58228e-11 2.78376e-11 -4.26702e-11 5.58228e-11 -7.24299e-11 -9.15039e-12 8.6913e-11 -4.26702e-11 -2.09634e-10 8.6913e-11 3.67299e-10 -2.09634e-10 -8.83354e-10 -4.26702e-11 -2.09634e-10 -7.24299e-11 -3.22083e-10 -2.09634e-10 -8.83354e-10 -3.22083e-10 -5.73643e-10 1.55215e-10 5.58228e-11 2.64278e-10 1.21887e-10 5.58228e-11 -7.24299e-11 1.21887e-10 -2.55269e-11 2.64278e-10 1.21887e-10 4.35577e-10 2.35004e-10 1.21887e-10 -2.55269e-11 2.35004e-10 7.52873e-11 -7.24299e-11 -3.22083e-10 -2.55269e-11 -1.82098e-10 -3.22083e-10 -5.73643e-10 -1.82098e-10 -3.17466e-10 -2.55269e-11 -1.82098e-10 7.52873e-11 -5.89217e-11 -1.82098e-10 -3.17466e-10 -5.89217e-11 -1.65507e-10 2.27273e-09 1.58819e-09 3.80675e-09 2.60375e-09 1.58819e-09 1.07663e-09 2.60375e-09 1.72967e-09 3.80675e-09 2.60375e-09 6.2863e-09 4.19532e-09 2.60375e-09 1.72967e-09 4.19532e-09 2.7223e-09 1.07663e-09 7.04385e-10 1.72967e-09 1.11446e-09 7.04385e-10 4.35577e-10 1.11446e-09 6.8994e-10 1.72967e-09 1.11446e-09 2.7223e-09 1.71923e-09 1.11446e-09 6.8994e-10 1.71923e-09 1.05274e-09 6.2863e-09 4.19532e-09 1.01961e-08 6.61878e-09 4.19532e-09 2.7223e-09 6.61878e-09 4.18395e-09 1.01961e-08 6.61878e-09 1.61632e-08 1.01773e-08 6.61878e-09 4.18395e-09 1.01773e-08 6.2548e-09 2.7223e-09 1.71923e-09 4.18395e-09 2.58155e-09 1.71923e-09 1.05274e-09 2.58155e-09 1.5527e-09 4.18395e-09 2.58155e-09 6.2548e-09 3.76365e-09 2.58155e-09 1.5527e-09 3.76365e-09 2.21661e-09 4.35577e-10 2.35004e-10 6.8994e-10 3.97288e-10 2.35004e-10 7.52873e-11 3.97288e-10 1.90356e-10 6.8994e-10 3.97288e-10 1.05274e-09 6.14546e-10 3.97288e-10 1.90356e-10 6.14546e-10 3.22884e-10 7.52873e-11 -5.89217e-11 1.90356e-10 3.69595e-11 -5.89217e-11 -1.65507e-10 3.69595e-11 -8.49197e-11 1.90356e-10 3.69595e-11 3.22884e-10 1.18302e-10 3.69595e-11 -8.49197e-11 1.18302e-10 -4.33837e-11 1.05274e-09 6.14546e-10 1.5527e-09 9.00162e-10 6.14546e-10 3.22884e-10 9.00162e-10 4.82129e-10 1.5527e-09 9.00162e-10 2.21661e-09 1.26623e-09 9.00162e-10 4.82129e-10 1.26623e-09 6.76058e-10 3.22884e-10 1.18302e-10 4.82129e-10 1.98879e-10 1.18302e-10 -4.33837e-11 1.98879e-10 -2.22041e-11 4.82129e-10 1.98879e-10 6.76058e-10 2.87264e-10 1.98879e-10 -2.22041e-11 2.87264e-10 -1.14084e-11 3.59275e-07 2.07634e-07 6.63425e-07 3.83448e-07 2.07634e-07 1.39334e-07 3.83448e-07 2.56384e-07 6.63425e-07 3.83448e-07 1.22698e-06 7.10604e-07 3.83448e-07 2.56384e-07 7.10604e-07 4.73032e-07 1.39334e-07 1.0106e-07 2.56384e-07 1.83502e-07 1.0106e-07 7.43274e-08 1.83502e-07 1.31768e-07 2.56384e-07 1.83502e-07 4.73032e-07 3.32242e-07 1.83502e-07 1.31768e-07 3.32242e-07 2.30798e-07 1.22698e-06 7.10604e-07 2.27409e-06 1.32241e-06 7.10604e-07 4.73032e-07 1.32241e-06 8.73947e-07 2.27409e-06 1.32241e-06 4.22029e-06 2.47102e-06 1.32241e-06 8.73947e-07 2.47102e-06 1.60454e-06 4.73032e-07 3.32242e-07 8.73947e-07 5.95811e-07 3.32242e-07 2.30798e-07 5.95811e-07 3.95345e-07 8.73947e-07 5.95811e-07 1.60454e-06 1.04421e-06 5.95811e-07 3.95345e-07 1.04421e-06 6.49885e-07 7.43274e-08 5.35165e-08 1.31768e-07 9.18781e-08 5.35165e-08 3.72125e-08 9.18781e-08 6.16131e-08 1.31768e-07 9.18781e-08 2.30798e-07 1.54418e-07 9.18781e-08 6.16131e-08 1.54418e-07 9.91083e-08 3.72125e-08 2.49409e-08 6.16131e-08 3.97918e-08 2.49409e-08 1.61632e-08 3.97918e-08 2.48895e-08 6.16131e-08 3.97918e-08 9.91083e-08 6.13823e-08 3.97918e-08 2.48895e-08 6.13823e-08 3.69665e-08 2.30798e-07 1.54418e-07 3.95345e-07 2.50918e-07 1.54418e-07 9.91083e-08 2.50918e-07 1.53106e-07 3.95345e-07 2.50918e-07 6.49885e-07 3.87545e-07 2.50918e-07 1.53106e-07 3.87545e-07 2.24143e-07 9.91083e-08 6.13823e-08 1.53106e-07 9.06761e-08 6.13823e-08 3.69665e-08 9.06761e-08 5.2549e-08 1.53106e-07 9.06761e-08 2.24143e-07 1.26983e-07 9.06761e-08 5.2549e-08 1.26983e-07 7.09525e-08 4.22029e-06 2.47102e-06 7.82976e-06 4.59459e-06 2.47102e-06 1.60454e-06 4.59459e-06 2.87897e-06 7.82976e-06 4.59459e-06 1.42581e-05 8.34296e-06 4.59459e-06 2.87897e-06 8.34296e-06 4.78282e-06 1.60454e-06 1.04421e-06 2.87897e-06 1.73438e-06 1.04421e-06 6.49885e-07 1.73438e-06 9.98204e-07 2.87897e-06 1.73438e-06 4.78282e-06 2.61044e-06 1.73438e-06 9.98204e-07 2.61044e-06 1.39241e-06 1.42581e-05 8.34296e-06 2.49004e-05 1.33339e-05 8.34296e-06 4.78282e-06 1.33339e-05 6.78339e-06 2.49004e-05 1.33339e-05 3.14585e-05 1.59504e-05 1.33339e-05 6.78339e-06 1.59504e-05 7.68415e-06 4.78282e-06 2.61044e-06 6.78339e-06 3.40967e-06 2.61044e-06 1.39241e-06 3.40967e-06 1.72026e-06 6.78339e-06 3.40967e-06 7.68415e-06 3.74258e-06 3.40967e-06 1.72026e-06 3.74258e-06 1.84976e-06 6.49885e-07 3.87545e-07 9.98204e-07 5.5813e-07 3.87545e-07 2.24143e-07 5.5813e-07 3.06765e-07 9.98204e-07 5.5813e-07 1.39241e-06 7.35774e-07 5.5813e-07 3.06765e-07 7.35774e-07 3.87712e-07 2.24143e-07 1.26983e-07 3.06765e-07 1.66954e-07 1.26983e-07 7.09525e-08 1.66954e-07 9.03575e-08 3.06765e-07 1.66954e-07 3.87712e-07 2.04357e-07 1.66954e-07 9.03575e-08 2.04357e-07 1.07886e-07 1.39241e-06 7.35774e-07 1.72026e-06 8.7444e-07 7.35774e-07 3.87712e-07 8.7444e-07 4.4811e-07 1.72026e-06 8.7444e-07 1.84976e-06 9.27373e-07 8.7444e-07 4.4811e-07 9.27373e-07 4.70615e-07 3.87712e-07 2.04357e-07 4.4811e-07 2.31354e-07 2.04357e-07 1.07886e-07 2.31354e-07 1.20224e-07 4.4811e-07 2.31354e-07 4.70615e-07 2.4124e-07 2.31354e-07 1.20224e-07 2.4124e-07 1.24684e-07 1.61632e-08 1.01773e-08 2.48895e-08 1.51698e-08 1.01773e-08 6.2548e-09 1.51698e-08 9.05468e-09 2.48895e-08 1.51698e-08 3.69665e-08 2.17897e-08 1.51698e-08 9.05468e-09 2.17897e-08 1.26326e-08 6.2548e-09 3.76365e-09 9.05468e-09 5.3102e-09 3.76365e-09 2.21661e-09 5.3102e-09 3.05973e-09 9.05468e-09 5.3102e-09 1.26326e-08 7.22446e-09 5.3102e-09 3.05973e-09 7.22446e-09 4.07468e-09 3.69665e-08 2.17897e-08 5.2549e-08 2.99788e-08 2.17897e-08 1.26326e-08 2.99788e-08 1.69048e-08 5.2549e-08 2.99788e-08 7.09525e-08 3.92776e-08 2.99788e-08 1.69048e-08 3.92776e-08 2.16014e-08 1.26326e-08 7.22446e-09 1.69048e-08 9.44274e-09 7.22446e-09 4.07468e-09 9.44274e-09 5.22124e-09 1.69048e-08 9.44274e-09 2.16014e-08 1.18167e-08 9.44274e-09 5.22124e-09 1.18167e-08 6.42094e-09 2.21661e-09 1.26623e-09 3.05973e-09 1.71794e-09 1.26623e-09 6.76058e-10 1.71794e-09 9.07703e-10 3.05973e-09 1.71794e-09 4.07468e-09 2.24838e-09 1.71794e-09 9.07703e-10 2.24838e-09 1.17337e-09 6.76058e-10 2.87264e-10 9.07703e-10 3.87315e-10 2.87264e-10 -1.14084e-11 3.87315e-10 -5.88907e-12 9.07703e-10 3.87315e-10 1.17337e-09 4.98707e-10 3.87315e-10 -5.88907e-12 4.98707e-10 -3.0546e-12 4.07468e-09 2.24838e-09 5.22124e-09 2.83467e-09 2.24838e-09 1.17337e-09 2.83467e-09 1.46153e-09 5.22124e-09 2.83467e-09 6.42094e-09 3.43669e-09 2.83467e-09 1.46153e-09 3.43669e-09 1.75287e-09 1.17337e-09 4.98707e-10 1.46153e-09 6.17302e-10 4.98707e-10 -3.0546e-12 6.17302e-10 -1.59251e-12 1.46153e-09 6.17302e-10 1.75287e-09 7.3565e-10 6.17302e-10 -1.59251e-12 7.3565e-10 -8.36021e-13 7.09525e-08 3.92776e-08 9.03575e-08 4.87506e-08 3.92776e-08 2.16014e-08 4.87506e-08 2.62544e-08 9.03575e-08 4.87506e-08 1.07886e-07 5.70737e-08 4.87506e-08 2.62544e-08 5.70737e-08 3.02531e-08 2.16014e-08 1.18167e-08 2.62544e-08 1.41155e-08 1.18167e-08 6.42094e-09 1.41155e-08 7.56083e-09 2.62544e-08 1.41155e-08 3.02531e-08 1.60557e-08 1.41155e-08 7.56083e-09 1.60557e-08 8.50881e-09 1.07886e-07 5.70737e-08 1.20224e-07 6.28198e-08 5.70737e-08 3.02531e-08 6.28198e-08 3.29716e-08 1.20224e-07 6.28198e-08 1.24684e-07 6.48759e-08 6.28198e-08 3.29716e-08 6.48759e-08 3.39366e-08 3.02531e-08 1.60557e-08 3.29716e-08 1.73585e-08 1.60557e-08 8.50881e-09 1.73585e-08 9.13891e-09 3.29716e-08 1.73585e-08 3.39366e-08 1.78181e-08 1.73585e-08 9.13891e-09 1.78181e-08 9.36004e-09 6.42094e-09 3.43669e-09 7.56083e-09 3.9998e-09 3.43669e-09 1.75287e-09 3.9998e-09 2.02197e-09 7.56083e-09 3.9998e-09 8.50881e-09 4.46246e-09 3.9998e-09 2.02197e-09 4.46246e-09 2.24097e-09 1.75287e-09 7.3565e-10 2.02197e-09 8.43927e-10 7.3565e-10 -8.36021e-13 8.43927e-10 -4.45283e-13 2.02197e-09 8.43927e-10 2.24097e-09 9.31432e-10 8.43927e-10 -4.45283e-13 9.31432e-10 -2.47103e-13 8.50881e-09 4.46246e-09 9.13891e-09 4.76745e-09 4.46246e-09 2.24097e-09 4.76745e-09 2.38439e-09 9.13891e-09 4.76745e-09 9.36004e-09 4.87404e-09 4.76745e-09 2.38439e-09 4.87404e-09 2.43435e-09 2.24097e-09 9.31432e-10 2.38439e-09 9.88479e-10 9.31432e-10 -2.47103e-13 9.88479e-10 -1.54633e-13 2.38439e-09 9.88479e-10 2.43435e-09 1.0083e-09 9.88479e-10 -1.54633e-13 1.0083e-09 -1.27693e-13 3.67299e-10 3.59664e-10 -8.83354e-10 -9.45621e-10 3.59664e-10 4.69822e-11 -9.45621e-10 -3.37848e-10 -8.83354e-10 -9.45621e-10 -5.73643e-10 -6.20418e-10 -9.45621e-10 -3.37848e-10 -6.20418e-10 -4.52843e-10 4.69822e-11 -1.20467e-10 -3.37848e-10 -1.88567e-10 -1.20467e-10 -1.80302e-10 -1.88567e-10 -1.73696e-10 -3.37848e-10 -1.88567e-10 -4.52843e-10 -2.79714e-10 -1.88567e-10 -1.73696e-10 -2.79714e-10 -2.51223e-10 -5.73643e-10 -6.20418e-10 -3.17466e-10 -3.71716e-10 -6.20418e-10 -4.52843e-10 -3.71716e-10 -3.49534e-10 -3.17466e-10 -3.71716e-10 -1.65507e-10 -2.41031e-10 -3.71716e-10 -3.49534e-10 -2.41031e-10 -2.99633e-10 -4.52843e-10 -2.79714e-10 -3.49534e-10 -3.26644e-10 -2.79714e-10 -2.51223e-10 -3.26644e-10 -3.59378e-10 -3.49534e-10 -3.26644e-10 -2.99633e-10 -3.76171e-10 -3.26644e-10 -3.59378e-10 -3.76171e-10 -5.11815e-10 -1.80302e-10 -2.36181e-10 -1.73696e-10 -2.09289e-10 -2.36181e-10 -3.11868e-10 -2.09289e-10 -2.75342e-10 -1.73696e-10 -2.09289e-10 -2.51223e-10 -3.0208e-10 -2.09289e-10 -2.75342e-10 -3.0208e-10 -4.07401e-10 -3.11868e-10 -4.15102e-10 -2.75342e-10 -3.68878e-10 -4.15102e-10 -5.47072e-10 -3.68878e-10 -4.89907e-10 -2.75342e-10 -3.68878e-10 -4.07401e-10 -5.6105e-10 -3.68878e-10 -4.89907e-10 -5.6105e-10 -7.64218e-10 -2.51223e-10 -3.0208e-10 -3.59378e-10 -4.73834e-10 -3.0208e-10 -4.07401e-10 -4.73834e-10 -6.67514e-10 -3.59378e-10 -4.73834e-10 -5.11815e-10 -7.39184e-10 -4.73834e-10 -6.67514e-10 -7.39184e-10 -1.08726e-09 -4.07401e-10 -5.6105e-10 -6.67514e-10 -9.45938e-10 -5.6105e-10 -7.64218e-10 -9.45938e-10 -1.31844e-09 -6.67514e-10 -9.45938e-10 -1.08726e-09 -1.58372e-09 -9.45938e-10 -1.31844e-09 -1.58372e-09 -2.25712e-09 -1.65507e-10 -2.41031e-10 -8.49197e-11 -1.94149e-10 -2.41031e-10 -2.99633e-10 -1.94149e-10 -3.15466e-10 -8.49197e-11 -1.94149e-10 -4.33837e-11 -1.99779e-10 -1.94149e-10 -3.15466e-10 -1.99779e-10 -3.90444e-10 -2.99633e-10 -3.76171e-10 -3.15466e-10 -4.836e-10 -3.76171e-10 -5.11815e-10 -4.836e-10 -7.41872e-10 -3.15466e-10 -4.836e-10 -3.90444e-10 -6.64195e-10 -4.836e-10 -7.41872e-10 -6.64195e-10 -1.08508e-09 -4.33837e-11 -1.99779e-10 -2.22041e-11 -2.40995e-10 -1.99779e-10 -3.90444e-10 -2.40995e-10 -5.18077e-10 -2.22041e-11 -2.40995e-10 -1.14084e-11 -3.0906e-10 -2.40995e-10 -5.18077e-10 -3.0906e-10 -6.95061e-10 -3.90444e-10 -6.64195e-10 -5.18077e-10 -9.27804e-10 -6.64195e-10 -1.08508e-09 -9.27804e-10 -1.57179e-09 -5.18077e-10 -9.27804e-10 -6.95061e-10 -1.28135e-09 -9.27804e-10 -1.57179e-09 -1.28135e-09 -2.22753e-09 -5.11815e-10 -7.39184e-10 -7.41872e-10 -1.14121e-09 -7.39184e-10 -1.08726e-09 -1.14121e-09 -1.73977e-09 -7.41872e-10 -1.14121e-09 -1.08508e-09 -1.73754e-09 -1.14121e-09 -1.73977e-09 -1.73754e-09 -2.73039e-09 -1.08726e-09 -1.58372e-09 -1.73977e-09 -2.6029e-09 -1.58372e-09 -2.25712e-09 -2.6029e-09 -3.79797e-09 -1.73977e-09 -2.6029e-09 -2.73039e-09 -4.19621e-09 -2.6029e-09 -3.79797e-09 -4.19621e-09 -6.28191e-09 -1.08508e-09 -1.73754e-09 -1.57179e-09 -2.59318e-09 -1.73754e-09 -2.73039e-09 -2.59318e-09 -4.1897e-09 -1.57179e-09 -2.59318e-09 -2.22753e-09 -3.77068e-09 -2.59318e-09 -4.1897e-09 -3.77068e-09 -6.25858e-09 -2.73039e-09 -4.19621e-09 -4.1897e-09 -6.62013e-09 -4.19621e-09 -6.28191e-09 -6.62013e-09 -1.01941e-08 -4.1897e-09 -6.62013e-09 -6.25858e-09 -1.01785e-08 -6.62013e-09 -1.01941e-08 -1.01785e-08 -1.61624e-08 -5.47072e-10 -7.05992e-10 -4.89907e-10 -6.37854e-10 -7.05992e-10 -8.85973e-10 -6.37854e-10 -8.10393e-10 -4.89907e-10 -6.37854e-10 -7.64218e-10 -1.01894e-09 -6.37854e-10 -8.10393e-10 -1.01894e-09 -1.32615e-09 -8.85973e-10 -1.07439e-09 -8.10393e-10 -1.0038e-09 -1.07439e-09 -1.24749e-09 -1.0038e-09 -1.21688e-09 -8.10393e-10 -1.0038e-09 -1.32615e-09 -1.68767e-09 -1.0038e-09 -1.21688e-09 -1.68767e-09 -2.11578e-09 -7.64218e-10 -1.01894e-09 -1.31844e-09 -1.79375e-09 -1.01894e-09 -1.32615e-09 -1.79375e-09 -2.37777e-09 -1.31844e-09 -1.79375e-09 -2.25712e-09 -3.13182e-09 -1.79375e-09 -2.37777e-09 -3.13182e-09 -4.22456e-09 -1.32615e-09 -1.68767e-09 -2.37777e-09 -3.07743e-09 -1.68767e-09 -2.11578e-09 -3.07743e-09 -3.91833e-09 -2.37777e-09 -3.07743e-09 -4.22456e-09 -5.55056e-09 -3.07743e-09 -3.91833e-09 -5.55056e-09 -7.15574e-09 -1.24749e-09 -1.36547e-09 -1.21688e-09 -1.46458e-09 -1.36547e-09 -1.37894e-09 -1.46458e-09 -1.81492e-09 -1.21688e-09 -1.46458e-09 -2.11578e-09 -2.65975e-09 -1.46458e-09 -1.81492e-09 -2.65975e-09 -3.47244e-09 -1.37894e-09 -1.31911e-09 -1.81492e-09 -2.4611e-09 -1.31911e-09 -1.63701e-09 -2.4611e-09 -3.90899e-09 -1.81492e-09 -2.4611e-09 -3.47244e-09 -4.9893e-09 -2.4611e-09 -3.90899e-09 -4.9893e-09 -8.51884e-09 -2.11578e-09 -2.65975e-09 -3.91833e-09 -4.99539e-09 -2.65975e-09 -3.47244e-09 -4.99539e-09 -6.60872e-09 -3.91833e-09 -4.99539e-09 -7.15574e-09 -9.2134e-09 -4.99539e-09 -6.60872e-09 -9.2134e-09 -1.22854e-08 -3.47244e-09 -4.9893e-09 -6.60872e-09 -9.64076e-09 -4.9893e-09 -8.51884e-09 -9.64076e-09 -1.65358e-08 -6.60872e-09 -9.64076e-09 -1.22854e-08 -1.8011e-08 -9.64076e-09 -1.65358e-08 -1.8011e-08 -3.09514e-08 -2.25712e-09 -3.13182e-09 -3.79797e-09 -5.38475e-09 -3.13182e-09 -4.22456e-09 -5.38475e-09 -7.40626e-09 -3.79797e-09 -5.38475e-09 -6.28191e-09 -9.12793e-09 -5.38475e-09 -7.40626e-09 -9.12793e-09 -1.28433e-08 -4.22456e-09 -5.55056e-09 -7.40626e-09 -9.89551e-09 -5.55056e-09 -7.15574e-09 -9.89551e-09 -1.2932e-08 -7.40626e-09 -9.89551e-09 -1.28433e-08 -1.75048e-08 -9.89551e-09 -1.2932e-08 -1.75048e-08 -2.32484e-08 -6.28191e-09 -9.12793e-09 -1.01941e-08 -1.52349e-08 -9.12793e-09 -1.28433e-08 -1.52349e-08 -2.20202e-08 -1.01941e-08 -1.52349e-08 -1.61624e-08 -2.49385e-08 -1.52349e-08 -2.20202e-08 -2.49385e-08 -3.72087e-08 -1.28433e-08 -1.75048e-08 -2.20202e-08 -3.07452e-08 -1.75048e-08 -2.32484e-08 -3.07452e-08 -4.165e-08 -2.20202e-08 -3.07452e-08 -3.72087e-08 -5.35114e-08 -3.07452e-08 -4.165e-08 -5.35114e-08 -7.4321e-08 -7.15574e-09 -9.2134e-09 -1.2932e-08 -1.68228e-08 -9.2134e-09 -1.22854e-08 -1.68228e-08 -2.25909e-08 -1.2932e-08 -1.68228e-08 -2.32484e-08 -3.06027e-08 -1.68228e-08 -2.25909e-08 -3.06027e-08 -4.14087e-08 -1.22854e-08 -1.8011e-08 -2.25909e-08 -3.32598e-08 -1.8011e-08 -3.09514e-08 -3.32598e-08 -5.72704e-08 -2.25909e-08 -3.32598e-08 -4.14087e-08 -6.1222e-08 -3.32598e-08 -5.72704e-08 -6.1222e-08 -1.05636e-07 -2.32484e-08 -3.06027e-08 -4.165e-08 -5.56142e-08 -3.06027e-08 -4.14087e-08 -5.56142e-08 -7.58997e-08 -4.165e-08 -5.56142e-08 -7.4321e-08 -1.01052e-07 -5.56142e-08 -7.58997e-08 -1.01052e-07 -1.39325e-07 -4.14087e-08 -6.1222e-08 -7.58997e-08 -1.12674e-07 -6.1222e-08 -1.05636e-07 -1.12674e-07 -1.94757e-07 -7.58997e-08 -1.12674e-07 -1.39325e-07 -2.07622e-07 -1.12674e-07 -1.94757e-07 -2.07622e-07 -3.59254e-07 -1.14084e-11 -3.0906e-10 -5.88907e-12 -3.98628e-10 -3.0906e-10 -6.95061e-10 -3.98628e-10 -9.17725e-10 -5.88907e-12 -3.98628e-10 -3.0546e-12 -5.04599e-10 -3.98628e-10 -9.17725e-10 -5.04599e-10 -1.17866e-09 -6.95061e-10 -1.28135e-09 -9.17725e-10 -1.72612e-09 -1.28135e-09 -2.22753e-09 -1.72612e-09 -3.06584e-09 -9.17725e-10 -1.72612e-09 -1.17866e-09 -2.25278e-09 -1.72612e-09 -3.06584e-09 -2.25278e-09 -4.07806e-09 -3.0546e-12 -5.04599e-10 -1.59251e-12 -6.20384e-10 -5.04599e-10 -1.17866e-09 -6.20384e-10 -1.46433e-09 -1.59251e-12 -6.20384e-10 -8.36021e-13 -7.37273e-10 -6.20384e-10 -1.46433e-09 -7.37273e-10 -1.75435e-09 -1.17866e-09 -2.25278e-09 -1.46433e-09 -2.83704e-09 -2.25278e-09 -4.07806e-09 -2.83704e-09 -5.22309e-09 -1.46433e-09 -2.83704e-09 -1.75435e-09 -3.43796e-09 -2.83704e-09 -5.22309e-09 -3.43796e-09 -6.42196e-09 -2.22753e-09 -3.77068e-09 -3.06584e-09 -5.31431e-09 -3.77068e-09 -6.25858e-09 -5.31431e-09 -9.05705e-09 -3.06584e-09 -5.31431e-09 -4.07806e-09 -7.22682e-09 -5.31431e-09 -9.05705e-09 -7.22682e-09 -1.26341e-08 -6.25858e-09 -1.01785e-08 -9.05705e-09 -1.51707e