# vtk DataFile Version 3.0
#This file was generated by the deal.II library on 2022/11/17 at 0:14:20
ASCII
DATASET UNSTRUCTURED_GRID

POINTS 4096 double
0 0.5 0
0.03125 0.5 0
0 0.53125 0
0.03125 0.53125 0
0.03125 0.5 0
0.0625 0.5 0
0.03125 0.53125 0
0.0625 0.53125 0
0 0.53125 0
0.03125 0.53125 0
0 0.5625 0
0.03125 0.5625 0
0.03125 0.53125 0
0.0625 0.53125 0
0.03125 0.5625 0
0.0625 0.5625 0
0.0625 0.5 0
0.09375 0.5 0
0.0625 0.53125 0
0.09375 0.53125 0
0.09375 0.5 0
0.125 0.5 0
0.09375 0.53125 0
0.125 0.53125 0
0.0625 0.53125 0
0.09375 0.53125 0
0.0625 0.5625 0
0.09375 0.5625 0
0.09375 0.53125 0
0.125 0.53125 0
0.09375 0.5625 0
0.125 0.5625 0
0 0.5625 0
0.03125 0.5625 0
0 0.59375 0
0.03125 0.59375 0
0.03125 0.5625 0
0.0625 0.5625 0
0.03125 0.59375 0
0.0625 0.59375 0
0 0.59375 0
0.03125 0.59375 0
0 0.625 0
0.03125 0.625 0
0.03125 0.59375 0
0.0625 0.59375 0
0.03125 0.625 0
0.0625 0.625 0
0.0625 0.5625 0
0.09375 0.5625 0
0.0625 0.59375 0
0.09375 0.59375 0
0.09375 0.5625 0
0.125 0.5625 0
0.09375 0.59375 0
0.125 0.59375 0
0.0625 0.59375 0
0.09375 0.59375 0
0.0625 0.625 0
0.09375 0.625 0
0.09375 0.59375 0
0.125 0.59375 0
0.09375 0.625 0
0.125 0.625 0
0.125 0.5 0
0.15625 0.5 0
0.125 0.53125 0
0.15625 0.53125 0
0.15625 0.5 0
0.1875 0.5 0
0.15625 0.53125 0
0.1875 0.53125 0
0.125 0.53125 0
0.15625 0.53125 0
0.125 0.5625 0
0.15625 0.5625 0
0.15625 0.53125 0
0.1875 0.53125 0
0.15625 0.5625 0
0.1875 0.5625 0
0.1875 0.5 0
0.21875 0.5 0
0.1875 0.53125 0
0.21875 0.53125 0
0.21875 0.5 0
0.25 0.5 0
0.21875 0.53125 0
0.25 0.53125 0
0.1875 0.53125 0
0.21875 0.53125 0
0.1875 0.5625 0
0.21875 0.5625 0
0.21875 0.53125 0
0.25 0.53125 0
0.21875 0.5625 0
0.25 0.5625 0
0.125 0.5625 0
0.15625 0.5625 0
0.125 0.59375 0
0.15625 0.59375 0
0.15625 0.5625 0
0.1875 0.5625 0
0.15625 0.59375 0
0.1875 0.59375 0
0.125 0.59375 0
0.15625 0.59375 0
0.125 0.625 0
0.15625 0.625 0
0.15625 0.59375 0
0.1875 0.59375 0
0.15625 0.625 0
0.1875 0.625 0
0.1875 0.5625 0
0.21875 0.5625 0
0.1875 0.59375 0
0.21875 0.59375 0
0.21875 0.5625 0
0.25 0.5625 0
0.21875 0.59375 0
0.25 0.59375 0
0.1875 0.59375 0
0.21875 0.59375 0
0.1875 0.625 0
0.21875 0.625 0
0.21875 0.59375 0
0.25 0.59375 0
0.21875 0.625 0
0.25 0.625 0
0 0.625 0
0.03125 0.625 0
0 0.65625 0
0.03125 0.65625 0
0.03125 0.625 0
0.0625 0.625 0
0.03125 0.65625 0
0.0625 0.65625 0
0 0.65625 0
0.03125 0.65625 0
0 0.6875 0
0.03125 0.6875 0
0.03125 0.65625 0
0.0625 0.65625 0
0.03125 0.6875 0
0.0625 0.6875 0
0.0625 0.625 0
0.09375 0.625 0
0.0625 0.65625 0
0.09375 0.65625 0
0.09375 0.625 0
0.125 0.625 0
0.09375 0.65625 0
0.125 0.65625 0
0.0625 0.65625 0
0.09375 0.65625 0
0.0625 0.6875 0
0.09375 0.6875 0
0.09375 0.65625 0
0.125 0.65625 0
0.09375 0.6875 0
0.125 0.6875 0
0 0.6875 0
0.03125 0.6875 0
0 0.71875 0
0.03125 0.71875 0
0.03125 0.6875 0
0.0625 0.6875 0
0.03125 0.71875 0
0.0625 0.71875 0
0 0.71875 0
0.03125 0.71875 0
0 0.75 0
0.03125 0.75 0
0.03125 0.71875 0
0.0625 0.71875 0
0.03125 0.75 0
0.0625 0.75 0
0.0625 0.6875 0
0.09375 0.6875 0
0.0625 0.71875 0
0.09375 0.71875 0
0.09375 0.6875 0
0.125 0.6875 0
0.09375 0.71875 0
0.125 0.71875 0
0.0625 0.71875 0
0.09375 0.71875 0
0.0625 0.75 0
0.09375 0.75 0
0.09375 0.71875 0
0.125 0.71875 0
0.09375 0.75 0
0.125 0.75 0
0.125 0.625 0
0.15625 0.625 0
0.125 0.65625 0
0.15625 0.65625 0
0.15625 0.625 0
0.1875 0.625 0
0.15625 0.65625 0
0.1875 0.65625 0
0.125 0.65625 0
0.15625 0.65625 0
0.125 0.6875 0
0.15625 0.6875 0
0.15625 0.65625 0
0.1875 0.65625 0
0.15625 0.6875 0
0.1875 0.6875 0
0.1875 0.625 0
0.21875 0.625 0
0.1875 0.65625 0
0.21875 0.65625 0
0.21875 0.625 0
0.25 0.625 0
0.21875 0.65625 0
0.25 0.65625 0
0.1875 0.65625 0
0.21875 0.65625 0
0.1875 0.6875 0
0.21875 0.6875 0
0.21875 0.65625 0
0.25 0.65625 0
0.21875 0.6875 0
0.25 0.6875 0
0.125 0.6875 0
0.15625 0.6875 0
0.125 0.71875 0
0.15625 0.71875 0
0.15625 0.6875 0
0.1875 0.6875 0
0.15625 0.71875 0
0.1875 0.71875 0
0.125 0.71875 0
0.15625 0.71875 0
0.125 0.75 0
0.15625 0.75 0
0.15625 0.71875 0
0.1875 0.71875 0
0.15625 0.75 0
0.1875 0.75 0
0.1875 0.6875 0
0.21875 0.6875 0
0.1875 0.71875 0
0.21875 0.71875 0
0.21875 0.6875 0
0.25 0.6875 0
0.21875 0.71875 0
0.25 0.71875 0
0.1875 0.71875 0
0.21875 0.71875 0
0.1875 0.75 0
0.21875 0.75 0
0.21875 0.71875 0
0.25 0.71875 0
0.21875 0.75 0
0.25 0.75 0
0.25 0.5 0
0.28125 0.5 0
0.25 0.53125 0
0.28125 0.53125 0
0.28125 0.5 0
0.3125 0.5 0
0.28125 0.53125 0
0.3125 0.53125 0
0.25 0.53125 0
0.28125 0.53125 0
0.25 0.5625 0
0.28125 0.5625 0
0.28125 0.53125 0
0.3125 0.53125 0
0.28125 0.5625 0
0.3125 0.5625 0
0.3125 0.5 0
0.34375 0.5 0
0.3125 0.53125 0
0.34375 0.53125 0
0.34375 0.5 0
0.375 0.5 0
0.34375 0.53125 0
0.375 0.53125 0
0.3125 0.53125 0
0.34375 0.53125 0
0.3125 0.5625 0
0.34375 0.5625 0
0.34375 0.53125 0
0.375 0.53125 0
0.34375 0.5625 0
0.375 0.5625 0
0.25 0.5625 0
0.28125 0.5625 0
0.25 0.59375 0
0.28125 0.59375 0
0.28125 0.5625 0
0.3125 0.5625 0
0.28125 0.59375 0
0.3125 0.59375 0
0.25 0.59375 0
0.28125 0.59375 0
0.25 0.625 0
0.28125 0.625 0
0.28125 0.59375 0
0.3125 0.59375 0
0.28125 0.625 0
0.3125 0.625 0
0.3125 0.5625 0
0.34375 0.5625 0
0.3125 0.59375 0
0.34375 0.59375 0
0.34375 0.5625 0
0.375 0.5625 0
0.34375 0.59375 0
0.375 0.59375 0
0.3125 0.59375 0
0.34375 0.59375 0
0.3125 0.625 0
0.34375 0.625 0
0.34375 0.59375 0
0.375 0.59375 0
0.34375 0.625 0
0.375 0.625 0
0.375 0.5 0
0.40625 0.5 0
0.375 0.53125 0
0.40625 0.53125 0
0.40625 0.5 0
0.4375 0.5 0
0.40625 0.53125 0
0.4375 0.53125 0
0.375 0.53125 0
0.40625 0.53125 0
0.375 0.5625 0
0.40625 0.5625 0
0.40625 0.53125 0
0.4375 0.53125 0
0.40625 0.5625 0
0.4375 0.5625 0
0.4375 0.5 0
0.46875 0.5 0
0.4375 0.53125 0
0.46875 0.53125 0
0.46875 0.5 0
0.5 0.5 0
0.46875 0.53125 0
0.5 0.53125 0
0.4375 0.53125 0
0.46875 0.53125 0
0.4375 0.5625 0
0.46875 0.5625 0
0.46875 0.53125 0
0.5 0.53125 0
0.46875 0.5625 0
0.5 0.5625 0
0.375 0.5625 0
0.40625 0.5625 0
0.375 0.59375 0
0.40625 0.59375 0
0.40625 0.5625 0
0.4375 0.5625 0
0.40625 0.59375 0
0.4375 0.59375 0
0.375 0.59375 0
0.40625 0.59375 0
0.375 0.625 0
0.40625 0.625 0
0.40625 0.59375 0
0.4375 0.59375 0
0.40625 0.625 0
0.4375 0.625 0
0.4375 0.5625 0
0.46875 0.5625 0
0.4375 0.59375 0
0.46875 0.59375 0
0.46875 0.5625 0
0.5 0.5625 0
0.46875 0.59375 0
0.5 0.59375 0
0.4375 0.59375 0
0.46875 0.59375 0
0.4375 0.625 0
0.46875 0.625 0
0.46875 0.59375 0
0.5 0.59375 0
0.46875 0.625 0
0.5 0.625 0
0.25 0.625 0
0.28125 0.625 0
0.25 0.65625 0
0.28125 0.65625 0
0.28125 0.625 0
0.3125 0.625 0
0.28125 0.65625 0
0.3125 0.65625 0
0.25 0.65625 0
0.28125 0.65625 0
0.25 0.6875 0
0.28125 0.6875 0
0.28125 0.65625 0
0.3125 0.65625 0
0.28125 0.6875 0
0.3125 0.6875 0
0.3125 0.625 0
0.34375 0.625 0
0.3125 0.65625 0
0.34375 0.65625 0
0.34375 0.625 0
0.375 0.625 0
0.34375 0.65625 0
0.375 0.65625 0
0.3125 0.65625 0
0.34375 0.65625 0
0.3125 0.6875 0
0.34375 0.6875 0
0.34375 0.65625 0
0.375 0.65625 0
0.34375 0.6875 0
0.375 0.6875 0
0.25 0.6875 0
0.28125 0.6875 0
0.25 0.71875 0
0.28125 0.71875 0
0.28125 0.6875 0
0.3125 0.6875 0
0.28125 0.71875 0
0.3125 0.71875 0
0.25 0.71875 0
0.28125 0.71875 0
0.25 0.75 0
0.28125 0.75 0
0.28125 0.71875 0
0.3125 0.71875 0
0.28125 0.75 0
0.3125 0.75 0
0.3125 0.6875 0
0.34375 0.6875 0
0.3125 0.71875 0
0.34375 0.71875 0
0.34375 0.6875 0
0.375 0.6875 0
0.34375 0.71875 0
0.375 0.71875 0
0.3125 0.71875 0
0.34375 0.71875 0
0.3125 0.75 0
0.34375 0.75 0
0.34375 0.71875 0
0.375 0.71875 0
0.34375 0.75 0
0.375 0.75 0
0.375 0.625 0
0.40625 0.625 0
0.375 0.65625 0
0.40625 0.65625 0
0.40625 0.625 0
0.4375 0.625 0
0.40625 0.65625 0
0.4375 0.65625 0
0.375 0.65625 0
0.40625 0.65625 0
0.375 0.6875 0
0.40625 0.6875 0
0.40625 0.65625 0
0.4375 0.65625 0
0.40625 0.6875 0
0.4375 0.6875 0
0.4375 0.625 0
0.46875 0.625 0
0.4375 0.65625 0
0.46875 0.65625 0
0.46875 0.625 0
0.5 0.625 0
0.46875 0.65625 0
0.5 0.65625 0
0.4375 0.65625 0
0.46875 0.65625 0
0.4375 0.6875 0
0.46875 0.6875 0
0.46875 0.65625 0
0.5 0.65625 0
0.46875 0.6875 0
0.5 0.6875 0
0.375 0.6875 0
0.40625 0.6875 0
0.375 0.71875 0
0.40625 0.71875 0
0.40625 0.6875 0
0.4375 0.6875 0
0.40625 0.71875 0
0.4375 0.71875 0
0.375 0.71875 0
0.40625 0.71875 0
0.375 0.75 0
0.40625 0.75 0
0.40625 0.71875 0
0.4375 0.71875 0
0.40625 0.75 0
0.4375 0.75 0
0.4375 0.6875 0
0.46875 0.6875 0
0.4375 0.71875 0
0.46875 0.71875 0
0.46875 0.6875 0
0.5 0.6875 0
0.46875 0.71875 0
0.5 0.71875 0
0.4375 0.71875 0
0.46875 0.71875 0
0.4375 0.75 0
0.46875 0.75 0
0.46875 0.71875 0
0.5 0.71875 0
0.46875 0.75 0
0.5 0.75 0
0 0.75 0
0.03125 0.75 0
0 0.78125 0
0.03125 0.78125 0
0.03125 0.75 0
0.0625 0.75 0
0.03125 0.78125 0
0.0625 0.78125 0
0 0.78125 0
0.03125 0.78125 0
0 0.8125 0
0.03125 0.8125 0
0.03125 0.78125 0
0.0625 0.78125 0
0.03125 0.8125 0
0.0625 0.8125 0
0.0625 0.75 0
0.09375 0.75 0
0.0625 0.78125 0
0.09375 0.78125 0
0.09375 0.75 0
0.125 0.75 0
0.09375 0.78125 0
0.125 0.78125 0
0.0625 0.78125 0
0.09375 0.78125 0
0.0625 0.8125 0
0.09375 0.8125 0
0.09375 0.78125 0
0.125 0.78125 0
0.09375 0.8125 0
0.125 0.8125 0
0 0.8125 0
0.03125 0.8125 0
0 0.84375 0
0.03125 0.84375 0
0.03125 0.8125 0
0.0625 0.8125 0
0.03125 0.84375 0
0.0625 0.84375 0
0 0.84375 0
0.03125 0.84375 0
0 0.875 0
0.03125 0.875 0
0.03125 0.84375 0
0.0625 0.84375 0
0.03125 0.875 0
0.0625 0.875 0
0.0625 0.8125 0
0.09375 0.8125 0
0.0625 0.84375 0
0.09375 0.84375 0
0.09375 0.8125 0
0.125 0.8125 0
0.09375 0.84375 0
0.125 0.84375 0
0.0625 0.84375 0
0.09375 0.84375 0
0.0625 0.875 0
0.09375 0.875 0
0.09375 0.84375 0
0.125 0.84375 0
0.09375 0.875 0
0.125 0.875 0
0.125 0.75 0
0.15625 0.75 0
0.125 0.78125 0
0.15625 0.78125 0
0.15625 0.75 0
0.1875 0.75 0
0.15625 0.78125 0
0.1875 0.78125 0
0.125 0.78125 0
0.15625 0.78125 0
0.125 0.8125 0
0.15625 0.8125 0
0.15625 0.78125 0
0.1875 0.78125 0
0.15625 0.8125 0
0.1875 0.8125 0
0.1875 0.75 0
0.21875 0.75 0
0.1875 0.78125 0
0.21875 0.78125 0
0.21875 0.75 0
0.25 0.75 0
0.21875 0.78125 0
0.25 0.78125 0
0.1875 0.78125 0
0.21875 0.78125 0
0.1875 0.8125 0
0.21875 0.8125 0
0.21875 0.78125 0
0.25 0.78125 0
0.21875 0.8125 0
0.25 0.8125 0
0.125 0.8125 0
0.15625 0.8125 0
0.125 0.84375 0
0.15625 0.84375 0
0.15625 0.8125 0
[...]
POINT_DATA 4096
SCALARS x_dis double 1
LOOKUP_TABLE default
0.000673059 0.000643163 0.000656064 0.00062669 0.000643163 0.00061222 0.00062669 0.000596404 0.000656064 0.00062669 0.000634049 0.000604827 0.00062669 0.000596404 0.000604827 0.000574839 0.00061222 0.000581276 0.000596404 0.000566154 0.000581276 0.000551073 0.000566154 0.000536606 0.000596404 0.000566154 0.000574839 0.000544874 0.000566154 0.000536606 0.000544874 0.000515476 0.000634049 0.000604827 0.000607687 0.000578287 0.000604827 0.000574839 0.000578287 0.000548271 0.000607687 0.000578287 0.00057784 0.000547983 0.000578287 0.000548271 0.000547983 0.000517668 0.000574839 0.000544874 0.000548271 0.000518231 0.000544874 0.000515476 0.000518231 0.000488551 0.000548271 0.000518231 0.000517668 0.000487259 0.000518231 0.000488551 0.000487259 0.000456967 0.000551073 0.000522148 0.000536606 0.000508233 0.000522148 0.000494896 0.000508233 0.000481378 0.000536606 0.000508233 0.000515476 0.000487011 0.000508233 0.000481378 0.000487011 0.000459714 0.000494896 0.00046963 0.000481378 0.000456301 0.00046963 0.000446635 0.000456301 0.000433225 0.000481378 0.000456301 0.000459714 0.00043373 0.000456301 0.000433225 0.00043373 0.000409124 0.000515476 0.000487011 0.000488551 0.00045946 0.000487011 0.000459714 0.00045946 0.000431061 0.000488551 0.00045946 0.000456967 0.000426872 0.00045946 0.000431061 0.000426872 0.000396944 0.000459714 0.00043373 0.000431061 0.000403351 0.00043373 0.000409124 0.000403351 0.000376215 0.000431061 0.000403351 0.000396944 0.000367043 0.000403351 0.000376215 0.000367043 0.00033691 0.00057784 0.000547983 0.000545498 0.00051497 0.000547983 0.000517668 0.00051497 0.000484144 0.000545498 0.00051497 0.000511731 0.000480381 0.00051497 0.000484144 0.000480381 0.000448897 0.000517668 0.000487259 0.000484144 0.000453154 0.000487259 0.000456967 0.000453154 0.000422031 0.000484144 0.000453154 0.000448897 0.000417188 0.000453154 0.000422031 0.000417188 0.000385121 0.000511731 0.000480381 0.000477625 0.000445366 0.000480381 0.000448897 0.000445366 0.000413136 0.000477625 0.000445366 0.000444231 0.000411035 0.000445366 0.000413136 0.000411035 0.000378023 0.000448897 0.000417188 0.000413136 0.000380639 0.000417188 0.000385121 0.000380639 0.000347598 0.000413136 0.000380639 0.000378023 0.000344724 0.000380639 0.000347598 0.000344724 0.00031074 0.000456967 0.000426872 0.000422031 0.000390717 0.000426872 0.000396944 0.000390717 0.000359066 0.000422031 0.000390717 0.000385121 0.000352515 0.000390717 0.000359066 0.000352515 0.000319139 0.000396944 0.000367043 0.000359066 0.000326841 0.000367043 0.00033691 0.000326841 0.000293705 0.000359066 0.000326841 0.000319139 0.000284705 0.000326841 0.000293705 0.000284705 0.00024887 0.000385121 0.000352515 0.000347598 0.000313734 0.000352515 0.000319139 0.000313734 0.00027876 0.000347598 0.000313734 0.00031074 0.000275718 0.000313734 0.00027876 0.000275718 0.000239345 0.000319139 0.000284705 0.00027876 0.000242381 0.000284705 0.00024887 0.000242381 0.000204296 0.00027876 0.000242381 0.000239345 0.000201343 0.000242381 0.000204296 0.000201343 0.000161481 0.000446635 0.000426222 0.000433225 0.000412368 0.000426222 0.000408788 0.000412368 0.00039397 0.000433225 0.000412368 0.000409124 0.000385886 0.000412368 0.00039397 0.000385886 0.000363882 0.000408788 0.000394904 0.00039397 0.000378298 0.000394904 0.000385467 0.000378298 0.000365622 0.00039397 0.000378298 0.000363882 0.000342745 0.000378298 0.000365622 0.000342745 0.000321594 0.000409124 0.000385886 0.000376215 0.000349397 0.000385886 0.000363882 0.000349397 0.000322418 0.000376215 0.000349397 0.00033691 0.000306126 0.000349397 0.000322418 0.000306126 0.000274052 0.000363882 0.000342745 0.000322418 0.000294434 0.000342745 0.000321594 0.000294434 0.000263969 0.000322418 0.000294434 0.000274052 0.000239745 0.000294434 0.000263969 0.000239745 0.000201897 0.000385467 0.000382081 0.000365622 0.000355976 0.000382081 0.000387987 0.000355976 0.000348303 0.000365622 0.000355976 0.000321594 0.000298354 0.000355976 0.000348303 0.000298354 0.000268039 0.000387987 0.000414936 0.000348303 0.000333149 0.000414936 0.000466923 0.000333149 0.000270223 0.000348303 0.000333149 0.000268039 0.000219895 0.000333149 0.000270223 0.000219895 0.0001626 0.000321594 0.000298354 0.000263969 0.000228551 0.000298354 0.000268039 0.000228551 0.000184611 0.000263969 0.000228551 0.000201897 0.00015898 0.000228551 0.000184611 0.00015898 0.000110413 0.000268039 0.000219895 0.000184611 0.000132187 0.000219895 0.0001626 0.000132187 7.90284e-05 0.000184611 0.000132187 0.000110413 5.83204e-05 0.000132187 7.90284e-05 5.83204e-05 8.83515e-06 0.00033691 0.000306126 0.000293705 0.000259198 0.000306126 0.000274052 0.000259198 0.000222717 0.000293705 0.000259198 0.00024887 0.000211229 0.000259198 0.000222717 0.000211229 0.00017134 0.000274052 0.000239745 0.000222717 0.000183522 0.000239745 0.000201897 0.000183522 0.000140852 0.000222717 0.000183522 0.00017134 0.000128791 0.000183522 0.000140852 0.000128791 8.33687e-05 0.00024887 0.000211229 0.000204296 0.000164213 0.000211229 0.00017134 0.000164213 0.000121894 0.000204296 0.000164213 0.000161481 0.000119599 0.000164213 0.000121894 0.000119599 7.56485e-05 0.00017134 0.000128791 0.000121894 7.72365e-05 0.000128791 8.33687e-05 7.72365e-05 3.04198e-05 0.000121894 7.72365e-05 7.56485e-05 2.9769e-05 7.72365e-05 3.04198e-05 2.9769e-05 -1.76147e-05 0.000201897 0.00015898 0.000140852 9.43133e-05 0.00015898 0.000110413 9.43133e-05 4.45809e-05 0.000140852 9.43133e-05 8.33687e-05 3.53611e-05 9.43133e-05 4.45809e-05 3.53611e-05 -1.40575e-05 0.000110413 5.83204e-05 4.45809e-05 -5.81046e-06 5.83204e-05 8.83515e-06 -5.81046e-06 -5.25476e-05 4.45809e-05 -5.81046e-06 -1.40575e-05 -6.26083e-05 -5.81046e-06 -5.25476e-05 -6.26083e-05 -0.000107174 8.33687e-05 3.53611e-05 3.04198e-05 -1.79077e-05 3.53611e-05 -1.40575e-05 -1.79077e-05 -6.64597e-05 3.04198e-05 -1.79077e-05 -1.76147e-05 -6.56908e-05 -1.79077e-05 -6.64597e-05 -6.56908e-05 -0.000113205 -1.40575e-05 -6.26083e-05 -6.64597e-05 -0.000113295 -6.26083e-05 -0.000107174 -0.000113295 -0.000156086 -6.64597e-05 -0.000113295 -0.000113205 -0.000158517 -0.000113295 -0.000156086 -0.000158517 -0.000199809 0.000444231 0.000411035 0.000412526 0.000378414 0.000411035 0.000378023 0.000378414 0.000344627 0.000412526 0.000378414 0.000383378 0.000348412 0.000378414 0.000344627 0.000348412 0.000313894 0.000378023 0.000344724 0.000344627 0.000310554 0.000344724 0.00031074 0.000310554 0.000275697 0.000344627 0.000310554 0.000313894 0.000279102 0.000310554 0.000275697 0.000279102 0.000243465 0.000383378 0.000348412 0.000357534 0.000321804 0.000348412 0.000313894 0.000321804 0.000286627 0.000357534 0.000321804 0.000335606 0.000299229 0.000321804 0.000286627 0.000299229 0.000263483 0.000313894 0.000279102 0.000286627 0.000251194 0.000279102 0.000243465 0.000251194 0.000214884 0.000286627 0.000251194 0.000263483 0.000227504 0.000251194 0.000214884 0.000227504 0.000190634 0.00031074 0.000275718 0.000275697 0.000239653 0.000275718 0.000239345 0.000239653 0.000202099 0.000275697 0.000239653 0.000243465 0.000206547 0.000239653 0.000202099 0.000206547 0.000168026 0.000239345 0.000201343 0.000202099 0.000162793 0.000201343 0.000161481 0.000162793 0.000121583 0.000202099 0.000162793 0.000168026 0.000127701 0.000162793 0.000121583 0.000127701 8.54927e-05 0.000243465 0.000206547 0.000214884 0.000177238 0.000206547 0.000168026 0.000177238 0.000137943 0.000214884 0.000177238 0.000190634 0.000152401 0.000177238 0.000137943 0.000152401 0.000112504 0.000168026 0.000127701 0.000137943 9.68375e-05 0.000127701 8.54927e-05 9.68375e-05 5.39035e-05 0.000137943 9.68375e-05 0.000112504 7.08127e-05 9.68375e-05 5.39035e-05 7.08127e-05 2.73603e-05 0.000335606 0.000299229 0.000318078 0.000281185 0.000299229 0.000263483 0.000281185 0.000244981 0.000318078 0.000281185 0.000305313 0.000268043 0.000281185 0.000244981 0.000268043 0.000231503 0.000263483 0.000227504 0.000244981 0.000208563 0.000227504 0.000190634 0.000208563 0.00017125 0.000244981 0.000208563 0.000231503 0.000194764 0.000208563 0.00017125 0.000194764 0.000157131 0.000305313 0.000268043 0.000297557 0.00026006 0.000268043 0.000231503 0.00026006 0.000223315 0.000297557 0.00026006 0.000294956 0.000257383 0.00026006 0.000223315 0.000257383 0.000220569 0.000231503 0.000194764 0.000223315 0.000186379 0.000194764 0.000157131 0.000186379 0.000148552 0.000223315 0.000186379 0.000220569 0.000183567 0.000186379 0.000148552 0.000183567 0.000145675 0.000190634 0.000152401 0.00017125 0.000132564 0.000152401 0.000112504 0.000132564 9.22165e-05 0.00017125 0.000132564 0.000157131 0.000118124 0.000132564 9.22165e-05 0.000118124 7.74626e-05 0.000112504 7.08127e-05 9.22165e-05 5.01016e-05 7.08127e-05 2.73603e-05 5.01016e-05 6.28929e-06 9.22165e-05 5.01016e-05 7.74626e-05 3.50608e-05 5.01016e-05 6.28929e-06 3.50608e-05 -8.98709e-06 0.000157131 0.000118124 0.000148552 0.000109352 0.000118124 7.74626e-05 0.000109352 6.85071e-05 0.000148552 0.000109352 0.000145675 0.000106411 0.000109352 6.85071e-05 0.000106411 6.55049e-05 7.74626e-05 3.50608e-05 6.85071e-05 2.5939e-05 3.50608e-05 -8.98709e-06 2.5939e-05 -1.82423e-05 6.85071e-05 2.5939e-05 6.55049e-05 2.28823e-05 2.5939e-05 -1.82423e-05 2.28823e-05 -2.13423e-05 0.000161481 0.000119599 0.000121583 7.8428e-05 0.000119599 7.56485e-05 7.8428e-05 3.34361e-05 0.000121583 7.8428e-05 8.54927e-05 4.14621e-05 7.8428e-05 3.34361e-05 4.14621e-05 -4.16437e-06 7.56485e-05 2.9769e-05 3.34361e-05 -1.3083e-05 2.9769e-05 -1.76147e-05 -1.3083e-05 -6.05613e-05 3.34361e-05 -1.3083e-05 -4.16437e-06 -5.09642e-05 -1.3083e-05 -6.05613e-05 -5.09642e-05 -9.82899e-05 8.54927e-05 4.14621e-05 5.39035e-05 9.28265e-06 4.14621e-05 -4.16437e-06 9.28265e-06 -3.67138e-05 5.39035e-05 9.28265e-06 2.73603e-05 -1.76525e-05 9.28265e-06 -3.67138e-05 -1.76525e-05 -6.38554e-05 -4.16437e-06 -5.09642e-05 -3.67138e-05 -8.35899e-05 -5.09642e-05 -9.82899e-05 -8.35899e-05 -0.000130657 -3.67138e-05 -8.35899e-05 -6.38554e-05 -0.000110706 -8.35899e-05 -0.000130657 -0.000110706 -0.000157494 -1.76147e-05 -6.56908e-05 -6.05613e-05 -0.000108127 -6.56908e-05 -0.000113205 -0.000108127 -0.000154603 -6.05613e-05 -0.000108127 -9.82899e-05 -0.000145259 -0.000108127 -0.000154603 -0.000145259 -0.000190776 -0.000113205 -0.000158517 -0.000154603 -0.000198583 -0.000158517 -0.000199809 -0.000198583 -0.000238591 -0.000154603 -0.000198583 -0.000190776 -0.000233609 -0.000198583 -0.000238591 -0.000233609 -0.000272511 -9.82899e-05 -0.000145259 -0.000130657 -0.000177041 -0.000145259 -0.000190776 -0.000177041 -0.000221719 -0.000130657 -0.000177041 -0.000157494 -0.000203362 -0.000177041 -0.000221719 -0.000203362 -0.000247346 -0.000190776 -0.000233609 -0.000221719 -0.000263587 -0.000233609 -0.000272511 -0.000263587 -0.000301545 -0.000221719 -0.000263587 -0.000247346 -0.000288427 -0.000263587 -0.000301545 -0.000288427 -0.000325593 2.73603e-05 -1.76525e-05 6.28929e-06 -3.89784e-05 -1.76525e-05 -6.38554e-05 -3.89784e-05 -8.52912e-05 6.28929e-06 -3.89784e-05 -8.98709e-06 -5.44121e-05 -3.89784e-05 -8.52912e-05 -5.44121e-05 -0.000100779 -6.38554e-05 -0.000110706 -8.52912e-05 -0.000132078 -0.000110706 -0.000157494 -0.000132078 -0.00017862 -8.52912e-05 -0.000132078 -0.000100779 -0.000147503 -0.000132078 -0.00017862 -0.000147503 -0.000193862 -8.98709e-06 -5.44121e-05 -1.82423e-05 -6.37518e-05 -5.44121e-05 -0.000100779 -6.37518e-05 -0.000110142 -1.82423e-05 -6.37518e-05 -2.13423e-05 -6.68781e-05 -6.37518e-05 -0.000110142 -6.68781e-05 -0.000113275 -0.000100779 -0.000147503 -0.000110142 -0.000156824 -0.000147503 -0.000193862 -0.000156824 -0.000203076 -0.000110142 -0.000156824 -0.000113275 -0.000159942 -0.000156824 -0.000203076 -0.000159942 -0.00020616 -0.000157494 -0.000203362 -0.00017862 -0.000224077 -0.000203362 -0.000247346 -0.000224077 -0.000267522 -0.00017862 -0.000224077 -0.000193862 -0.000239027 -0.000224077 -0.000267522 -0.000239027 -0.000282088 -0.000247346 -0.000288427 -0.000267522 -0.000307987 -0.000288427 -0.000325593 -0.000307987 -0.000344514 -0.000267522 -0.000307987 -0.000282088 -0.000322105 -0.000307987 -0.000344514 -0.000322105 -0.000358161 -0.000193862 -0.000239027 -0.000203076 -0.000248068 -0.000239027 -0.000282088 -0.000248068 -0.000290897 -0.000203076 -0.000248068 -0.00020616 -0.000251095 -0.000248068 -0.000290897 -0.000251095 -0.000293845 -0.000282088 -0.000322105 -0.000290897 -0.000330641 -0.000322105 -0.000358161 -0.000330641 -0.000366408 -0.000290897 -0.000330641 -0.000293845 -0.000333498 -0.000330641 -0.000366408 -0.000333498 -0.000369167 0.000466923 0.000490677 0.000270223 0.000236447 0.000490677 0.000456424 0.000236447 0.000256011 0.000270223 0.000236447 0.0001626 0.000123583 0.000236447 0.000256011 0.000123583 0.00011434 0.000456424 0.000412765 0.000256011 0.000252956 0.000412765 0.000372133 0.000252956 0.000238917 0.000256011 0.000252956 0.00011434 0.000117836 0.000252956 0.000238917 0.000117836 0.000116142 0.0001626 0.000123583 7.90284e-05 3.92003e-05 0.000123583 0.00011434 3.92003e-05 1.93967e-05 7.90284e-05 3.92003e-05 8.83515e-06 -3.04621e-05 3.92003e-05 1.93967e-05 -3.04621e-05 -5.55102e-05 0.00011434 0.000117836 1.93967e-05 1.34803e-05 0.000117836 0.000116142 1.34803e-05 1.23568e-05 1.93967e-05 1.34803e-05 -5.55102e-05 -6.80583e-05 1.34803e-05 1.23568e-05 -6.80583e-05 -7.31325e-05 0.000372133 0.000334059 0.000238917 0.000219752 0.000334059 0.000298566 0.000219752 0.000198563 0.000238917 0.000219752 0.000116142 0.000109387 0.000219752 0.000198563 0.000109387 9.92128e-05 0.000298566 0.000265615 0.000198563 0.000177058 0.000265615 0.000235384 0.000177058 0.000156325 0.000198563 0.000177058 9.92128e-05 8.7259e-05 0.000177058 0.000156325 8.7259e-05 7.47979e-05 0.000116142 0.000109387 1.23568e-05 1.03542e-05 0.000109387 9.92128e-05 1.03542e-05 6.50475e-06 1.23568e-05 1.03542e-05 -7.31325e-05 -7.51279e-05 1.03542e-05 6.50475e-06 -7.51279e-05 -7.65119e-05 9.92128e-05 8.7259e-05 6.50475e-06 1.15785e-06 8.7259e-05 7.47979e-05 1.15785e-06 -4.94025e-06 6.50475e-06 1.15785e-06 -7.65119e-05 -7.80651e-05 1.15785e-06 -4.94025e-06 -7.80651e-05 -7.97945e-05 8.83515e-06 -3.04621e-05 -5.25476e-05 -9.1001e-05 -3.04621e-05 -5.55102e-05 -9.1001e-05 -0.000118479 -5.25476e-05 -9.1001e-05 -0.000107174 -0.00014469 -9.1001e-05 -0.000118479 -0.00014469 -0.00017325 -5.55102e-05 -6.80583e-05 -0.000118479 -0.00013535 -6.80583e-05 -7.31325e-05 -0.00013535 -0.000144171 -0.000118479 -0.00013535 -0.00017325 -0.000192694 -0.00013535 -0.000144171 -0.000192694 -0.000204327 -0.000107174 -0.00014469 -0.000156086 -0.000192649 -0.00014469 -0.00017325 -0.000192649 -0.000221547 -0.000156086 -0.000192649 -0.000199809 -0.000235431 -0.000192649 -0.000221547 -0.000235431 -0.000264233 -0.00017325 -0.000192694 -0.000221547 -0.00024242 -0.000192694 -0.000204327 -0.00024242 -0.000255893 -0.000221547 -0.00024242 -0.000264233 -0.000285773 -0.00024242 -0.000255893 -0.000285773 -0.000300301 -7.31325e-05 -7.51279e-05 -0.000144171 -0.000147989 -7.51279e-05 -7.65119e-05 -0.000147989 -0.000149122 -0.000144171 -0.000147989 -0.000204327 -0.0002101 -0.000147989 -0.000149122 -0.0002101 -0.000211867 -7.65119e-05 -7.80651e-05 -0.000149122 -0.000148898 -7.80651e-05 -7.97945e-05 -0.000148898 -0.000147879 -0.000149122 -0.000148898 -0.000211867 -0.000210985 -0.000148898 -0.000147879 -0.000210985 -0.000208291 -0.000204327 -0.0002101 -0.000255893 -0.000263196 -0.0002101 -0.000211867 -0.000263196 -0.000265701 -0.000255893 -0.000263196 -0.000300301 -0.000308574 -0.000263196 -0.000265701 -0.000308574 -0.000311578 -0.000211867 -0.000210985 -0.000265701 -0.000264605 -0.000210985 -0.000208291 -0.000264605 -0.000260808 -0.000265701 -0.000264605 -0.000311578 -0.000310307 -0.000264605 -0.000260808 -0.000310307 -0.000305624 0.000235384 0.000208185 0.000156325 0.000137158 0.000208185 0.000184433 0.000137158 0.000120197 0.000156325 0.000137158 7.47979e-05 6.28055e-05 0.000137158 0.000120197 6.28055e-05 5.20399e-05 0.000184433 0.000164575 0.000120197 0.000105958 0.000164575 0.000149008 0.000105958 9.48274e-05 0.000120197 0.000105958 5.20399e-05 4.30924e-05 0.000105958 9.48274e-05 4.30924e-05 3.64116e-05 7.47979e-05 6.28055e-05 -4.94025e-06 -1.10302e-05 6.28055e-05 5.20399e-05 -1.10302e-05 -1.64377e-05 -4.94025e-06 -1.10302e-05 -7.97945e-05 -8.13729e-05 -1.10302e-05 -1.64377e-05 -8.13729e-05 -8.23719e-05 5.20399e-05 4.30924e-05 -1.64377e-05 -2.05936e-05 4.30924e-05 3.64116e-05 -2.05936e-05 -2.30305e-05 -1.64377e-05 -2.05936e-05 -8.23719e-05 -8.23557e-05 -2.05936e-05 -2.30305e-05 -8.23557e-05 -8.09242e-05 0.000149008 0.000137954 9.48274e-05 8.70258e-05 0.000137954 0.000131293 8.70258e-05 8.25631e-05 9.48274e-05 8.70258e-05 3.64116e-05 3.23133e-05 8.70258e-05 8.25631e-05 3.23133e-05 3.09785e-05 0.000131293 0.000128393 8.25631e-05 8.1198e-05 0.000128393 0.000128089 8.1198e-05 8.22494e-05 8.25631e-05 8.1198e-05 3.09785e-05 3.24051e-05 8.1198e-05 8.22494e-05 3.24051e-05 3.61951e-05 3.64116e-05 3.23133e-05 -2.30305e-05 -2.33775e-05 3.23133e-05 3.09785e-05 -2.33775e-05 -2.13658e-05 -2.30305e-05 -2.33775e-05 -8.09242e-05 -7.77282e-05 -2.33775e-05 -2.13658e-05 -7.77282e-05 -7.24836e-05 3.09785e-05 3.24051e-05 -2.13658e-05 -1.68814e-05 3.24051e-05 3.61951e-05 -1.68814e-05 -1.01134e-05 -2.13658e-05 -1.68814e-05 -7.24836e-05 -6.5003e-05 -1.68814e-05 -1.01134e-05 -6.5003e-05 -5.52139e-05 -7.97945e-05 -8.13729e-05 -0.000147879 -0.000146174 -8.13729e-05 -8.23719e-05 -0.000146174 -0.000143656 -0.000147879 -0.000146174 -0.000208291 -0.00020421 -0.000146174 -0.000143656 -0.00020421 -0.000198896 -8.23719e-05 -8.23557e-05 -0.000143656 -0.000140099 -8.23557e-05 -8.09242e-05 -0.000140099 -0.000135238 -0.000143656 -0.000140099 -0.000198896 -0.000192347 -0.000140099 -0.000135238 -0.000192347 -0.000184468 -0.000208291 -0.00020421 -0.000260808 -0.000254922 -0.00020421 -0.000198896 -0.000254922 -0.000247316 -0.000260808 -0.000254922 -0.000305624 -0.000298228 -0.000254922 -0.000247316 -0.000298228 -0.000288639 -0.000198896 -0.000192347 -0.000247316 -0.000238193 -0.000192347 -0.000184468 -0.000238193 -0.000227634 -0.000247316 -0.000238193 -0.000288639 -0.00027723 -0.000238193 -0.000227634 -0.00027723 -0.000264248 -8.09242e-05 -7.77282e-05 -0.000135238 -0.000128807 -7.77282e-05 -7.24836e-05 -0.000128807 -0.000120552 -0.000135238 -0.000128807 -0.000184468 -0.000175114 -0.000128807 -0.000120552 -0.000175114 -0.000164092 -7.24836e-05 -6.5003e-05 -0.000120552 -0.000110231 -6.5003e-05 -5.52139e-05 -0.000110231 -9.75647e-05 -0.000120552 -0.000110231 -0.000164092 -0.000151144 -0.000110231 -9.75647e-05 -0.000151144 -0.000135866 -0.000184468 -0.000175114 -0.000227634 -0.000215631 -0.000175114 -0.000164092 -0.000215631 -0.00020208 -0.000227634 -0.000215631 -0.000264248 -0.000249826 -0.000215631 -0.00020208 -0.000249826 -0.000233972 -0.000164092 -0.000151144 -0.00020208 -0.00018675 -0.000151144 -0.000135866 -0.00018675 -0.000169204 -0.00020208 -0.00018675 -0.000233972 -0.000216526 -0.00018675 -0.000169204 -0.000216526 -0.000197092 -0.000199809 -0.000235431 -0.000238591 -0.000273301 -0.000235431 -0.000264233 -0.000273301 -0.000301745 -0.000238591 -0.000273301 -0.000272511 -0.000306358 -0.000273301 -0.000301745 -0.000306358 -0.00033429 -0.000264233 -0.000285773 -0.000301745 -0.000323443 -0.000285773 -0.000300301 -0.000323443 -0.000338429 -0.000301745 -0.000323443 -0.00033429 -0.000355811 -0.000323443 -0.000338429 -0.000355811 -0.000370823 -0.000272511 -0.000306358 -0.000301545 -0.000334591 -0.000306358 -0.00033429 -0.000334591 -0.000361934 -0.000301545 -0.000334591 -0.000325593 -0.000357921 -0.000334591 -0.000361934 -0.000357921 -0.000384669 -0.00033429 -0.000355811 -0.000361934 -0.000383075 -0.000355811 -0.000370823 -0.000383075 -0.000397833 -0.000361934 -0.000383075 -0.000384669 -0.000405336 -0.000383075 -0.000397833 -0.000405336 -0.000419686 -0.000300301 -0.000308574 -0.000338429 -0.00034715 -0.000308574 -0.000311578 -0.00034715 -0.000350312 -0.000338429 -0.00034715 -0.000370823 -0.000379577 -0.00034715 -0.000350312 -0.000379577 -0.000382571 -0.000311578 -0.000310307 -0.000350