# vtk DataFile Version 3.0
#This file was generated by the deal.II library on 2022/11/17 at 0:11:38
ASCII
DATASET UNSTRUCTURED_GRID

POINTS 4096 double
0 0.5 0
0.03125 0.5 0
0 0.53125 0
0.03125 0.53125 0
0.03125 0.5 0
0.0625 0.5 0
0.03125 0.53125 0
0.0625 0.53125 0
0 0.53125 0
0.03125 0.53125 0
0 0.5625 0
0.03125 0.5625 0
0.03125 0.53125 0
0.0625 0.53125 0
0.03125 0.5625 0
0.0625 0.5625 0
0.0625 0.5 0
0.09375 0.5 0
0.0625 0.53125 0
0.09375 0.53125 0
0.09375 0.5 0
0.125 0.5 0
0.09375 0.53125 0
0.125 0.53125 0
0.0625 0.53125 0
0.09375 0.53125 0
0.0625 0.5625 0
0.09375 0.5625 0
0.09375 0.53125 0
0.125 0.53125 0
0.09375 0.5625 0
0.125 0.5625 0
0 0.5625 0
0.03125 0.5625 0
0 0.59375 0
0.03125 0.59375 0
0.03125 0.5625 0
0.0625 0.5625 0
0.03125 0.59375 0
0.0625 0.59375 0
0 0.59375 0
0.03125 0.59375 0
0 0.625 0
0.03125 0.625 0
0.03125 0.59375 0
0.0625 0.59375 0
0.03125 0.625 0
0.0625 0.625 0
0.0625 0.5625 0
0.09375 0.5625 0
0.0625 0.59375 0
0.09375 0.59375 0
0.09375 0.5625 0
0.125 0.5625 0
0.09375 0.59375 0
0.125 0.59375 0
0.0625 0.59375 0
0.09375 0.59375 0
0.0625 0.625 0
0.09375 0.625 0
0.09375 0.59375 0
0.125 0.59375 0
0.09375 0.625 0
0.125 0.625 0
0.125 0.5 0
0.15625 0.5 0
0.125 0.53125 0
0.15625 0.53125 0
0.15625 0.5 0
0.1875 0.5 0
0.15625 0.53125 0
0.1875 0.53125 0
0.125 0.53125 0
0.15625 0.53125 0
0.125 0.5625 0
0.15625 0.5625 0
0.15625 0.53125 0
0.1875 0.53125 0
0.15625 0.5625 0
0.1875 0.5625 0
0.1875 0.5 0
0.21875 0.5 0
0.1875 0.53125 0
0.21875 0.53125 0
0.21875 0.5 0
0.25 0.5 0
0.21875 0.53125 0
0.25 0.53125 0
0.1875 0.53125 0
0.21875 0.53125 0
0.1875 0.5625 0
0.21875 0.5625 0
0.21875 0.53125 0
0.25 0.53125 0
0.21875 0.5625 0
0.25 0.5625 0
0.125 0.5625 0
0.15625 0.5625 0
0.125 0.59375 0
0.15625 0.59375 0
0.15625 0.5625 0
0.1875 0.5625 0
0.15625 0.59375 0
0.1875 0.59375 0
0.125 0.59375 0
0.15625 0.59375 0
0.125 0.625 0
0.15625 0.625 0
0.15625 0.59375 0
0.1875 0.59375 0
0.15625 0.625 0
0.1875 0.625 0
0.1875 0.5625 0
0.21875 0.5625 0
0.1875 0.59375 0
0.21875 0.59375 0
0.21875 0.5625 0
0.25 0.5625 0
0.21875 0.59375 0
0.25 0.59375 0
0.1875 0.59375 0
0.21875 0.59375 0
0.1875 0.625 0
0.21875 0.625 0
0.21875 0.59375 0
0.25 0.59375 0
0.21875 0.625 0
0.25 0.625 0
0 0.625 0
0.03125 0.625 0
0 0.65625 0
0.03125 0.65625 0
0.03125 0.625 0
0.0625 0.625 0
0.03125 0.65625 0
0.0625 0.65625 0
0 0.65625 0
0.03125 0.65625 0
0 0.6875 0
0.03125 0.6875 0
0.03125 0.65625 0
0.0625 0.65625 0
0.03125 0.6875 0
0.0625 0.6875 0
0.0625 0.625 0
0.09375 0.625 0
0.0625 0.65625 0
0.09375 0.65625 0
0.09375 0.625 0
0.125 0.625 0
0.09375 0.65625 0
0.125 0.65625 0
0.0625 0.65625 0
0.09375 0.65625 0
0.0625 0.6875 0
0.09375 0.6875 0
0.09375 0.65625 0
0.125 0.65625 0
0.09375 0.6875 0
0.125 0.6875 0
0 0.6875 0
0.03125 0.6875 0
0 0.71875 0
0.03125 0.71875 0
0.03125 0.6875 0
0.0625 0.6875 0
0.03125 0.71875 0
0.0625 0.71875 0
0 0.71875 0
0.03125 0.71875 0
0 0.75 0
0.03125 0.75 0
0.03125 0.71875 0
0.0625 0.71875 0
0.03125 0.75 0
0.0625 0.75 0
0.0625 0.6875 0
0.09375 0.6875 0
0.0625 0.71875 0
0.09375 0.71875 0
0.09375 0.6875 0
0.125 0.6875 0
0.09375 0.71875 0
0.125 0.71875 0
0.0625 0.71875 0
0.09375 0.71875 0
0.0625 0.75 0
0.09375 0.75 0
0.09375 0.71875 0
0.125 0.71875 0
0.09375 0.75 0
0.125 0.75 0
0.125 0.625 0
0.15625 0.625 0
0.125 0.65625 0
0.15625 0.65625 0
0.15625 0.625 0
0.1875 0.625 0
0.15625 0.65625 0
0.1875 0.65625 0
0.125 0.65625 0
0.15625 0.65625 0
0.125 0.6875 0
0.15625 0.6875 0
0.15625 0.65625 0
0.1875 0.65625 0
0.15625 0.6875 0
0.1875 0.6875 0
0.1875 0.625 0
0.21875 0.625 0
0.1875 0.65625 0
0.21875 0.65625 0
0.21875 0.625 0
0.25 0.625 0
0.21875 0.65625 0
0.25 0.65625 0
0.1875 0.65625 0
0.21875 0.65625 0
0.1875 0.6875 0
0.21875 0.6875 0
0.21875 0.65625 0
0.25 0.65625 0
0.21875 0.6875 0
0.25 0.6875 0
0.125 0.6875 0
0.15625 0.6875 0
0.125 0.71875 0
0.15625 0.71875 0
0.15625 0.6875 0
0.1875 0.6875 0
0.15625 0.71875 0
0.1875 0.71875 0
0.125 0.71875 0
0.15625 0.71875 0
0.125 0.75 0
0.15625 0.75 0
0.15625 0.71875 0
0.1875 0.71875 0
0.15625 0.75 0
0.1875 0.75 0
0.1875 0.6875 0
0.21875 0.6875 0
0.1875 0.71875 0
0.21875 0.71875 0
0.21875 0.6875 0
0.25 0.6875 0
0.21875 0.71875 0
0.25 0.71875 0
0.1875 0.71875 0
0.21875 0.71875 0
0.1875 0.75 0
0.21875 0.75 0
0.21875 0.71875 0
0.25 0.71875 0
0.21875 0.75 0
0.25 0.75 0
0.25 0.5 0
0.28125 0.5 0
0.25 0.53125 0
0.28125 0.53125 0
0.28125 0.5 0
0.3125 0.5 0
0.28125 0.53125 0
0.3125 0.53125 0
0.25 0.53125 0
0.28125 0.53125 0
0.25 0.5625 0
0.28125 0.5625 0
0.28125 0.53125 0
0.3125 0.53125 0
0.28125 0.5625 0
0.3125 0.5625 0
0.3125 0.5 0
0.34375 0.5 0
0.3125 0.53125 0
0.34375 0.53125 0
0.34375 0.5 0
0.375 0.5 0
0.34375 0.53125 0
0.375 0.53125 0
0.3125 0.53125 0
0.34375 0.53125 0
0.3125 0.5625 0
0.34375 0.5625 0
0.34375 0.53125 0
0.375 0.53125 0
0.34375 0.5625 0
0.375 0.5625 0
0.25 0.5625 0
0.28125 0.5625 0
0.25 0.59375 0
0.28125 0.59375 0
0.28125 0.5625 0
0.3125 0.5625 0
0.28125 0.59375 0
0.3125 0.59375 0
0.25 0.59375 0
0.28125 0.59375 0
0.25 0.625 0
0.28125 0.625 0
0.28125 0.59375 0
0.3125 0.59375 0
0.28125 0.625 0
0.3125 0.625 0
0.3125 0.5625 0
0.34375 0.5625 0
0.3125 0.59375 0
0.34375 0.59375 0
0.34375 0.5625 0
0.375 0.5625 0
0.34375 0.59375 0
0.375 0.59375 0
0.3125 0.59375 0
0.34375 0.59375 0
0.3125 0.625 0
0.34375 0.625 0
0.34375 0.59375 0
0.375 0.59375 0
0.34375 0.625 0
0.375 0.625 0
0.375 0.5 0
0.40625 0.5 0
0.375 0.53125 0
0.40625 0.53125 0
0.40625 0.5 0
0.4375 0.5 0
0.40625 0.53125 0
0.4375 0.53125 0
0.375 0.53125 0
0.40625 0.53125 0
0.375 0.5625 0
0.40625 0.5625 0
0.40625 0.53125 0
0.4375 0.53125 0
0.40625 0.5625 0
0.4375 0.5625 0
0.4375 0.5 0
0.46875 0.5 0
0.4375 0.53125 0
0.46875 0.53125 0
0.46875 0.5 0
0.5 0.5 0
0.46875 0.53125 0
0.5 0.53125 0
0.4375 0.53125 0
0.46875 0.53125 0
0.4375 0.5625 0
0.46875 0.5625 0
0.46875 0.53125 0
0.5 0.53125 0
0.46875 0.5625 0
0.5 0.5625 0
0.375 0.5625 0
0.40625 0.5625 0
0.375 0.59375 0
0.40625 0.59375 0
0.40625 0.5625 0
0.4375 0.5625 0
0.40625 0.59375 0
0.4375 0.59375 0
0.375 0.59375 0
0.40625 0.59375 0
0.375 0.625 0
0.40625 0.625 0
0.40625 0.59375 0
0.4375 0.59375 0
0.40625 0.625 0
0.4375 0.625 0
0.4375 0.5625 0
0.46875 0.5625 0
0.4375 0.59375 0
0.46875 0.59375 0
0.46875 0.5625 0
0.5 0.5625 0
0.46875 0.59375 0
0.5 0.59375 0
0.4375 0.59375 0
0.46875 0.59375 0
0.4375 0.625 0
0.46875 0.625 0
0.46875 0.59375 0
0.5 0.59375 0
0.46875 0.625 0
0.5 0.625 0
0.25 0.625 0
0.28125 0.625 0
0.25 0.65625 0
0.28125 0.65625 0
0.28125 0.625 0
0.3125 0.625 0
0.28125 0.65625 0
0.3125 0.65625 0
0.25 0.65625 0
0.28125 0.65625 0
0.25 0.6875 0
0.28125 0.6875 0
0.28125 0.65625 0
0.3125 0.65625 0
0.28125 0.6875 0
0.3125 0.6875 0
0.3125 0.625 0
0.34375 0.625 0
0.3125 0.65625 0
0.34375 0.65625 0
0.34375 0.625 0
0.375 0.625 0
0.34375 0.65625 0
0.375 0.65625 0
0.3125 0.65625 0
0.34375 0.65625 0
0.3125 0.6875 0
0.34375 0.6875 0
0.34375 0.65625 0
0.375 0.65625 0
0.34375 0.6875 0
0.375 0.6875 0
0.25 0.6875 0
0.28125 0.6875 0
0.25 0.71875 0
0.28125 0.71875 0
0.28125 0.6875 0
0.3125 0.6875 0
0.28125 0.71875 0
0.3125 0.71875 0
0.25 0.71875 0
0.28125 0.71875 0
0.25 0.75 0
0.28125 0.75 0
0.28125 0.71875 0
0.3125 0.71875 0
0.28125 0.75 0
0.3125 0.75 0
0.3125 0.6875 0
0.34375 0.6875 0
0.3125 0.71875 0
0.34375 0.71875 0
0.34375 0.6875 0
0.375 0.6875 0
0.34375 0.71875 0
0.375 0.71875 0
0.3125 0.71875 0
0.34375 0.71875 0
0.3125 0.75 0
0.34375 0.75 0
0.34375 0.71875 0
0.375 0.71875 0
0.34375 0.75 0
0.375 0.75 0
0.375 0.625 0
0.40625 0.625 0
0.375 0.65625 0
0.40625 0.65625 0
0.40625 0.625 0
0.4375 0.625 0
0.40625 0.65625 0
0.4375 0.65625 0
0.375 0.65625 0
0.40625 0.65625 0
0.375 0.6875 0
0.40625 0.6875 0
0.40625 0.65625 0
0.4375 0.65625 0
0.40625 0.6875 0
0.4375 0.6875 0
0.4375 0.625 0
0.46875 0.625 0
0.4375 0.65625 0
0.46875 0.65625 0
0.46875 0.625 0
0.5 0.625 0
0.46875 0.65625 0
0.5 0.65625 0
0.4375 0.65625 0
0.46875 0.65625 0
0.4375 0.6875 0
0.46875 0.6875 0
0.46875 0.65625 0
0.5 0.65625 0
0.46875 0.6875 0
0.5 0.6875 0
0.375 0.6875 0
0.40625 0.6875 0
0.375 0.71875 0
0.40625 0.71875 0
0.40625 0.6875 0
0.4375 0.6875 0
0.40625 0.71875 0
0.4375 0.71875 0
0.375 0.71875 0
0.40625 0.71875 0
0.375 0.75 0
0.40625 0.75 0
0.40625 0.71875 0
0.4375 0.71875 0
0.40625 0.75 0
0.4375 0.75 0
0.4375 0.6875 0
0.46875 0.6875 0
0.4375 0.71875 0
0.46875 0.71875 0
0.46875 0.6875 0
0.5 0.6875 0
0.46875 0.71875 0
0.5 0.71875 0
0.4375 0.71875 0
0.46875 0.71875 0
0.4375 0.75 0
0.46875 0.75 0
0.46875 0.71875 0
0.5 0.71875 0
0.46875 0.75 0
0.5 0.75 0
0 0.75 0
0.03125 0.75 0
0 0.78125 0
0.03125 0.78125 0
0.03125 0.75 0
0.0625 0.75 0
0.03125 0.78125 0
0.0625 0.78125 0
0 0.78125 0
0.03125 0.78125 0
0 0.8125 0
0.03125 0.8125 0
0.03125 0.78125 0
0.0625 0.78125 0
0.03125 0.8125 0
0.0625 0.8125 0
0.0625 0.75 0
0.09375 0.75 0
0.0625 0.78125 0
0.09375 0.78125 0
0.09375 0.75 0
0.125 0.75 0
0.09375 0.78125 0
0.125 0.78125 0
0.0625 0.78125 0
0.09375 0.78125 0
0.0625 0.8125 0
0.09375 0.8125 0
0.09375 0.78125 0
0.125 0.78125 0
0.09375 0.8125 0
0.125 0.8125 0
0 0.8125 0
0.03125 0.8125 0
0 0.84375 0
0.03125 0.84375 0
0.03125 0.8125 0
0.0625 0.8125 0
0.03125 0.84375 0
0.0625 0.84375 0
0 0.84375 0
0.03125 0.84375 0
0 0.875 0
0.03125 0.875 0
0.03125 0.84375 0
0.0625 0.84375 0
0.03125 0.875 0
0.0625 0.875 0
0.0625 0.8125 0
0.09375 0.8125 0
0.0625 0.84375 0
0.09375 0.84375 0
0.09375 0.8125 0
0.125 0.8125 0
0.09375 0.84375 0
0.125 0.84375 0
0.0625 0.84375 0
0.09375 0.84375 0
0.0625 0.875 0
0.09375 0.875 0
0.09375 0.84375 0
0.125 0.84375 0
0.09375 0.875 0
0.125 0.875 0
0.125 0.75 0
0.15625 0.75 0
0.125 0.78125 0
0.15625 0.78125 0
0.15625 0.75 0
0.1875 0.75 0
0.15625 0.78125 0
0.1875 0.78125 0
0.125 0.78125 0
0.15625 0.78125 0
0.125 0.8125 0
0.15625 0.8125 0
0.15625 0.78125 0
0.1875 0.78125 0
0.15625 0.8125 0
0.1875 0.8125 0
0.1875 0.75 0
0.21875 0.75 0
0.1875 0.78125 0
0.21875 0.78125 0
0.21875 0.75 0
0.25 0.75 0
0.21875 0.78125 0
0.25 0.78125 0
0.1875 0.78125 0
0.21875 0.78125 0
0.1875 0.8125 0
0.21875 0.8125 0
0.21875 0.78125 0
0.25 0.78125 0
0.21875 0.8125 0
0.25 0.8125 0
0.125 0.8125 0
0.15625 0.8125 0
0.125 0.84375 0
0.15625 0.84375 0
0.15625 0.8125 0
[...]
POINT_DATA 4096
SCALARS x_dis double 1
LOOKUP_TABLE default
0.000480422 0.00045419 0.00050042 0.000474695 0.00045419 0.000426498 0.000474695 0.000447208 0.00050042 0.000474695 0.000517945 0.000492569 0.000474695 0.000447208 0.000492569 0.000465175 0.000426498 0.000397768 0.000447208 0.000418377 0.000397768 0.000368393 0.000418377 0.000388571 0.000447208 0.000418377 0.000465175 0.000436133 0.000418377 0.000388571 0.000436133 0.00040576 0.000517945 0.000492569 0.000532896 0.000507716 0.000492569 0.000465175 0.000507716 0.000480311 0.000532896 0.000507716 0.000545369 0.000520251 0.000507716 0.000480311 0.000520251 0.000492754 0.000465175 0.000436133 0.000480311 0.00045097 0.000436133 0.00040576 0.00045097 0.000419934 0.000480311 0.00045097 0.000492754 0.000463059 0.00045097 0.000419934 0.000463059 0.000431317 0.000368393 0.000338786 0.000388571 0.000358168 0.000338786 0.000309401 0.000358168 0.000327575 0.000388571 0.000358168 0.00040576 0.000374365 0.000358168 0.000327575 0.000374365 0.000342277 0.000309401 0.000280733 0.000327575 0.000297239 0.000280733 0.000253309 0.000297239 0.000267634 0.000327575 0.000297239 0.000342277 0.000309845 0.000297239 0.000267634 0.000309845 0.000277419 0.00040576 0.000374365 0.000419934 0.000387428 0.000374365 0.000342277 0.000387428 0.00035368 0.000419934 0.000387428 0.000431317 0.000397667 0.000387428 0.00035368 0.000397667 0.000362242 0.000342277 0.000309845 0.00035368 0.000318923 0.000309845 0.000277419 0.000318923 0.000283366 0.00035368 0.000318923 0.000362242 0.000325166 0.000318923 0.000283366 0.000325166 0.00028653 0.000545369 0.000520251 0.000555619 0.000530464 0.000520251 0.000492754 0.000530464 0.000502819 0.000555619 0.000530464 0.000563998 0.000538747 0.000530464 0.000502819 0.000538747 0.000510923 0.000492754 0.000463059 0.000502819 0.000472747 0.000463059 0.000431317 0.000472747 0.000440311 0.000502819 0.000472747 0.000510923 0.000480482 0.000472747 0.000440311 0.000480482 0.00044741 0.000563998 0.000538747 0.00057088 0.000545511 0.000538747 0.000510923 0.000545511 0.000517502 0.00057088 0.000545511 0.000576604 0.000551123 0.000545511 0.000517502 0.000551123 0.000522945 0.000510923 0.000480482 0.000517502 0.000486726 0.000480482 0.00044741 0.000486726 0.000453108 0.000517502 0.000486726 0.000522945 0.000491884 0.000486726 0.000453108 0.000491884 0.00045783 0.000431317 0.000397667 0.000440311 0.000405572 0.000397667 0.000362242 0.000405572 0.000368587 0.000440311 0.000405572 0.00044741 0.000411707 0.000405572 0.000368587 0.000411707 0.000373377 0.000362242 0.000325166 0.000368587 0.000329401 0.000325166 0.00028653 0.000329401 0.000288032 0.000368587 0.000329401 0.000373377 0.000332424 0.000329401 0.000288032 0.000332424 0.000288844 0.00044741 0.000411707 0.000453108 0.000416608 0.000411707 0.000373377 0.000416608 0.000377204 0.000453108 0.000416608 0.00045783 0.000420718 0.000416608 0.000377204 0.000420718 0.000380521 0.000373377 0.000332424 0.000377204 0.000334889 0.000332424 0.000288844 0.000334889 0.000289675 0.000377204 0.000334889 0.000380521 0.000337245 0.000334889 0.000289675 0.000337245 0.00029094 0.000253309 0.000227675 0.000267634 0.000239234 0.000227675 0.000204394 0.000239234 0.000212491 0.000267634 0.000239234 0.000277419 0.00024531 0.000239234 0.000212491 0.00024531 0.00021372 0.000204394 0.000184075 0.000212491 0.000187801 0.000184075 0.000167463 0.000187801 0.00016545 0.000212491 0.000187801 0.00021372 0.000182624 0.000187801 0.00016545 0.000182624 0.000151541 0.000277419 0.00024531 0.000283366 0.000247141 0.00024531 0.00021372 0.000247141 0.000210221 0.000283366 0.000247141 0.00028653 0.000246343 0.000247141 0.000210221 0.000246343 0.00020447 0.00021372 0.000182624 0.000210221 0.000172277 0.000182624 0.000151541 0.000172277 0.000132469 0.000210221 0.000172277 0.00020447 0.000160541 0.000172277 0.000132469 0.000160541 0.000113891 0.000167463 0.000155701 0.00016545 0.000145413 0.000155701 0.000150907 0.000145413 0.000126686 0.00016545 0.000145413 0.000151541 0.000119032 0.000145413 0.000126686 0.000119032 8.1513e-05 0.000150907 0.000160397 0.000126686 0.000102159 0.000160397 0.00018664 0.000102159 4.28649e-05 0.000126686 0.000102159 8.1513e-05 3.13215e-05 0.000102159 4.28649e-05 3.13215e-05 -2.51532e-05 0.000151541 0.000119032 0.000132469 8.91875e-05 0.000119032 8.1513e-05 8.91875e-05 4.00026e-05 0.000132469 8.91875e-05 0.000113891 6.36587e-05 8.91875e-05 4.00026e-05 6.36587e-05 9.62664e-06 8.1513e-05 3.13215e-05 4.00026e-05 -1.49129e-05 3.13215e-05 -2.51532e-05 -1.49129e-05 -7.0063e-05 4.00026e-05 -1.49129e-05 9.62664e-06 -4.65482e-05 -1.49129e-05 -7.0063e-05 -4.65482e-05 -0.000100394 0.00028653 0.000246343 0.000288032 0.000244447 0.000246343 0.00020447 0.000244447 0.000198532 0.000288032 0.000244447 0.000288844 0.000242626 0.000244447 0.000198532 0.000242626 0.000193754 0.00020447 0.000160541 0.000198532 0.000150077 0.000160541 0.000113891 0.000150077 9.88371e-05 0.000198532 0.000150077 0.000193754 0.000142247 0.000150077 9.88371e-05 0.000142247 8.82662e-05 0.000288844 0.000242626 0.000289675 0.000241607 0.000242626 0.000193754 0.000241607 0.000190793 0.000289675 0.000241607 0.00029094 0.000241718 0.000241607 0.000190793 0.000241718 0.000189792 0.000193754 0.000142247 0.000190793 0.000137456 0.000142247 8.82662e-05 0.000137456 8.2027e-05 0.000190793 0.000137456 0.000189792 0.000135532 0.000137456 8.2027e-05 0.000135532 7.95213e-05 0.000113891 6.36587e-05 9.88371e-05 4.48054e-05 6.36587e-05 9.62664e-06 4.48054e-05 -1.13032e-05 9.88371e-05 4.48054e-05 8.82662e-05 3.23075e-05 4.48054e-05 -1.13032e-05 3.23075e-05 -2.453e-05 9.62664e-06 -4.65482e-05 -1.13032e-05 -6.74918e-05 -4.65482e-05 -0.000100394 -6.74918e-05 -0.000120552 -1.13032e-05 -6.74918e-05 -2.453e-05 -8.04041e-05 -6.74918e-05 -0.000120552 -8.04041e-05 -0.000132927 8.82662e-05 3.23075e-05 8.2027e-05 2.52636e-05 3.23075e-05 -2.453e-05 2.52636e-05 -3.16454e-05 8.2027e-05 2.52636e-05 7.95213e-05 2.2621e-05 2.52636e-05 -3.16454e-05 2.2621e-05 -3.40084e-05 -2.453e-05 -8.04041e-05 -3.16454e-05 -8.70838e-05 -8.04041e-05 -0.000132927 -8.70838e-05 -0.000139207 -3.16454e-05 -8.70838e-05 -3.40084e-05 -8.89636e-05 -8.70838e-05 -0.000139207 -8.89636e-05 -0.000140762 0.000576604 0.000551123 0.00058143 0.000555863 0.000551123 0.000522945 0.000555863 0.000527546 0.00058143 0.000555863 0.000585538 0.000559918 0.000555863 0.000527546 0.000559918 0.000531496 0.000522945 0.000491884 0.000527546 0.000496263 0.000491884 0.00045783 0.000496263 0.000461885 0.000527546 0.000496263 0.000531496 0.000500054 0.000496263 0.000461885 0.000500054 0.000465458 0.000585538 0.000559918 0.000589024 0.000563382 0.000559918 0.000531496 0.000563382 0.000534892 0.000589024 0.000563382 0.000591924 0.000566285 0.000563382 0.000534892 0.000566285 0.000537756 0.000531496 0.000500054 0.000534892 0.000503346 0.000500054 0.000465458 0.000503346 0.000468621 0.000534892 0.000503346 0.000537756 0.000506151 0.000503346 0.000468621 0.000506151 0.000471364 0.00045783 0.000420718 0.000461885 0.000424343 0.000420718 0.000380521 0.000424343 0.000383616 0.000461885 0.000424343 0.000465458 0.000427646 0.000424343 0.000383616 0.000427646 0.000386613 0.000380521 0.000337245 0.000383616 0.000339737 0.000337245 0.00029094 0.000339737 0.000292797 0.000383616 0.000339737 0.000386613 0.000342419 0.000339737 0.000292797 0.000342419 0.000295197 0.000465458 0.000427646 0.000468621 0.000430668 0.000427646 0.000386613 0.000430668 0.000389501 0.000468621 0.000430668 0.000471364 0.000433361 0.000430668 0.000389501 0.000433361 0.000392174 0.000386613 0.000342419 0.000389501 0.000345205 0.000342419 0.000295197 0.000345205 0.000297945 0.000389501 0.000345205 0.000392174 0.000347912 0.000345205 0.000297945 0.000347912 0.000300762 0.000591924 0.000566285 0.000594231 0.000568609 0.000566285 0.000537756 0.000568609 0.000540064 0.000594231 0.000568609 0.000595916 0.000570317 0.000568609 0.000540064 0.000570317 0.000541769 0.000537756 0.000506151 0.000540064 0.000508433 0.000506151 0.000471364 0.000508433 0.000473627 0.000540064 0.000508433 0.000541769 0.00051013 0.000508433 0.000473627 0.00051013 0.000475327 0.000595916 0.000570317 0.000596945 0.000571364 0.000570317 0.000541769 0.000571364 0.000542817 0.000596945 0.000571364 0.000597292 0.000571717 0.000571364 0.000542817 0.000571717 0.000543171 0.000541769 0.00051013 0.000542817 0.000511179 0.00051013 0.000475327 0.000511179 0.000476383 0.000542817 0.000511179 0.000543171 0.000511533 0.000511179 0.000476383 0.000511533 0.000476742 0.000471364 0.000433361 0.000473627 0.000435626 0.000433361 0.000392174 0.000435626 0.000394482 0.000473627 0.000435626 0.000475327 0.000437351 0.000435626 0.000394482 0.000437351 0.000396268 0.000392174 0.000347912 0.000394482 0.000350319 0.000347912 0.000300762 0.000350319 0.000303341 0.000394482 0.000350319 0.000396268 0.000352215 0.000350319 0.000303341 0.000352215 0.000305406 0.000475327 0.000437351 0.000476383 0.000438433 0.000437351 0.000396268 0.000438433 0.0003974 0.000476383 0.000438433 0.000476742 0.000438801 0.000438433 0.0003974 0.000438801 0.000397787 0.000396268 0.000352215 0.0003974 0.000353427 0.000352215 0.000305406 0.000353427 0.000306737 0.0003974 0.000353427 0.000397787 0.000353844 0.000353427 0.000306737 0.000353844 0.000307196 0.00029094 0.000241718 0.000292797 0.000242972 0.000241718 0.000189792 0.000242972 0.000190556 0.000292797 0.000242972 0.000295197 0.000245171 0.000242972 0.000190556 0.000245171 0.000192687 0.000189792 0.000135532 0.000190556 0.000136002 0.000135532 7.95213e-05 0.000136002 7.99655e-05 0.000190556 0.000136002 0.000192687 0.000138245 0.000136002 7.99655e-05 0.000138245 8.25144e-05 0.000295197 0.000245171 0.000297945 0.000247981 0.000245171 0.000192687 0.000247981 0.00019569 0.000297945 0.000247981 0.000300762 0.000251005 0.000247981 0.00019569 0.000251005 0.000199035 0.000192687 0.000138245 0.00019569 0.000141586 0.000138245 8.25144e-05 0.000141586 8.63278e-05 0.00019569 0.000141586 0.000199035 0.000145362 0.000141586 8.63278e-05 0.000145362 9.06222e-05 7.95213e-05 2.2621e-05 7.99655e-05 2.33234e-05 2.2621e-05 -3.40084e-05 2.33234e-05 -3.284e-05 7.99655e-05 2.33234e-05 8.25144e-05 2.63441e-05 2.33234e-05 -3.284e-05 2.63441e-05 -2.92707e-05 -3.40084e-05 -8.89636e-05 -3.284e-05 -8.73005e-05 -8.89636e-05 -0.000140762 -8.73005e-05 -0.00013882 -3.284e-05 -8.73005e-05 -2.92707e-05 -8.32496e-05 -8.73005e-05 -0.00013882 -8.32496e-05 -0.000134525 8.25144e-05 2.63441e-05 8.63278e-05 3.07156e-05 2.63441e-05 -2.92707e-05 3.07156e-05 -2.43386e-05 8.63278e-05 3.07156e-05 9.06222e-05 3.55664e-05 3.07156e-05 -2.43386e-05 3.55664e-05 -1.89646e-05 -2.92707e-05 -8.32496e-05 -2.43386e-05 -7.78674e-05 -8.32496e-05 -0.000134525 -7.78674e-05 -0.000128925 -2.43386e-05 -7.78674e-05 -1.89646e-05 -7.20917e-05 -7.78674e-05 -0.000128925 -7.20917e-05 -0.000122963 0.000300762 0.000251005 0.000303341 0.000253843 0.000251005 0.000199035 0.000253843 0.000202219 0.000303341 0.000253843 0.000305406 0.000256141 0.000253843 0.000202219 0.000256141 0.000204815 0.000199035 0.000145362 0.000202219 0.000148972 0.000145362 9.06222e-05 0.000148972 9.47131e-05 0.000202219 0.000148972 0.000204815 0.00015192 0.000148972 9.47131e-05 0.00015192 9.8046e-05 0.000305406 0.000256141 0.000306737 0.000257631 0.000256141 0.000204815 0.000257631 0.000206504 0.000306737 0.000257631 0.000307196 0.000258147 0.000257631 0.000206504 0.000258147 0.000207088 0.000204815 0.00015192 0.000206504 0.000153839 0.00015192 9.8046e-05 0.000153839 0.000100212 0.000206504 0.000153839 0.000207088 0.000154503 0.000153839 0.000100212 0.000154503 0.000100962 9.06222e-05 3.55664e-05 9.47131e-05 4.01514e-05 3.55664e-05 -1.89646e-05 4.01514e-05 -1.39315e-05 9.47131e-05 4.01514e-05 9.8046e-05 4.38694e-05 4.01514e-05 -1.39315e-05 4.38694e-05 -9.87224e-06 -1.89646e-05 -7.20917e-05 -1.39315e-05 -6.67258e-05 -7.20917e-05 -0.000122963 -6.67258e-05 -0.000117448 -1.39315e-05 -6.67258e-05 -9.87224e-06 -6.24182e-05 -6.67258e-05 -0.000117448 -6.24182e-05 -0.000113032 9.8046e-05 4.38694e-05 0.000100212 4.62794e-05 4.38694e-05 -9.87224e-06 4.62794e-05 -7.24935e-06 0.000100212 4.62794e-05 0.000100962 4.71128e-05 4.62794e-05 -7.24935e-06 4.71128e-05 -6.3437e-06 -9.87224e-06 -6.24182e-05 -7.24935e-06 -5.96423e-05 -6.24182e-05 -0.000113032 -5.96423e-05 -0.000110191 -7.24935e-06 -5.96423e-05 -6.3437e-06 -5.86851e-05 -5.96423e-05 -0.000110191 -5.86851e-05 -0.000109212 0.00018664 0.000175451 4.28649e-05 3.54083e-06 0.000175451 0.000133188 3.54083e-06 -1.43254e-06 4.28649e-05 3.54083e-06 -2.51532e-05 -6.91715e-05 3.54083e-06 -1.43254e-06 -6.91715e-05 -9.23641e-05 0.000133188 8.61129e-05 -1.43254e-06 -2.06471e-05 8.61129e-05 4.23346e-05 -2.06471e-05 -4.61685e-05 -1.43254e-06 -2.06471e-05 -9.23641e-05 -0.000106661 -2.06471e-05 -4.61685e-05 -0.000106661 -0.000123559 -2.51532e-05 -6.91715e-05 -7.0063e-05 -0.000115451 -6.91715e-05 -9.23641e-05 -0.000115451 -0.000146473 -7.0063e-05 -0.000115451 -0.000100394 -0.000146496 -0.000115451 -0.000146473 -0.000146496 -0.000181944 -9.23641e-05 -0.000106661 -0.000146473 -0.000167264 -0.000106661 -0.000123559 -0.000167264 -0.000183873 -0.000146473 -0.000167264 -0.000181944 -0.000207897 -0.000167264 -0.000183873 -0.000207897 -0.000227657 4.23346e-05 1.67265e-06 -4.61685e-05 -7.37766e-05 1.67265e-06 -3.5662e-05 -7.37766e-05 -0.000101172 -4.61685e-05 -7.37766e-05 -0.000123559 -0.000142626 -7.37766e-05 -0.000101172 -0.000142626 -0.000162477 -3.5662e-05 -6.95361e-05 -0.000101172 -0.000127084 -6.95361e-05 -9.97814e-05 -0.000127084 -0.000150756 -0.000101172 -0.000127084 -0.000162477 -0.000181857 -0.000127084 -0.000150756 -0.000181857 -0.000199878 -0.000123559 -0.000142626 -0.000183873 -0.00019982 -0.000142626 -0.000162477 -0.00019982 -0.00021552 -0.000183873 -0.00019982 -0.000227657 -0.000244023 -0.00019982 -0.00021552 -0.000244023 -0.00025847 -0.000162477 -0.000181857 -0.00021552 -0.000230576 -0.000181857 -0.000199878 -0.000230576 -0.000244449 -0.00021552 -0.000230576 -0.00025847 -0.0002714 -0.000230576 -0.000244449 -0.0002714 -0.000282782 -0.000100394 -0.000146496 -0.000120552 -0.000167101 -0.000146496 -0.000181944 -0.000167101 -0.000205166 -0.000120552 -0.000167101 -0.000132927 -0.0001798 -0.000167101 -0.000205166 -0.0001798 -0.000219578 -0.000181944 -0.000207897 -0.000205166 -0.000234913 -0.000207897 -0.000227657 -0.000234913 -0.000257984 -0.000205166 -0.000234913 -0.000219578 -0.00025205 -0.000234913 -0.000257984 -0.00025205 -0.000278003 -0.000132927 -0.0001798 -0.000139207 -0.000186327 -0.0001798 -0.000219578 -0.000186327 -0.000227317 -0.000139207 -0.000186327 -0.000140762 -0.00018808 -0.000186327 -0.000227317 -0.00018808 -0.000229989 -0.000219578 -0.00025205 -0.000227317 -0.000261819 -0.00025205 -0.000278003 -0.000261819 -0.000290168 -0.000227317 -0.000261819 -0.000229989 -0.000266079 -0.000261819 -0.000290168 -0.000266079 -0.000296436 -0.000227657 -0.000244023 -0.000257984 -0.000276312 -0.000244023 -0.00025847 -0.000276312 -0.000291329 -0.000257984 -0.000276312 -0.000278003 -0.000298659 -0.000276312 -0.000291329 -0.000298659 -0.000315172 -0.00025847 -0.0002714 -0.000291329 -0.000303843 -0.0002714 -0.000282782 -0.000303843 -0.000314211 -0.000291329 -0.000303843 -0.000315172 -0.0003284 -0.000303843 -0.000314211 -0.0003284 -0.000338896 -0.000278003 -0.000298659 -0.000290168 -0.000313111 -0.000298659 -0.000315172 -0.000313111 -0.000331505 -0.000290168 -0.000313111 -0.000296436 -0.000321505 -0.000313111 -0.000331505 -0.000321505 -0.000341903 -0.000315172 -0.0003284 -0.000331505 -0.000346118 -0.0003284 -0.000338896 -0.000346118 -0.000357545 -0.000331505 -0.000346118 -0.000341903 -0.000358264 -0.000346118 -0.000357545 -0.000358264 -0.000371143 -9.97814e-05 -0.000126278 -0.000150756 -0.000171737 -0.000126278 -0.000148977 -0.000171737 -0.000189776 -0.000150756 -0.000171737 -0.000199878 -0.000215959 -0.000171737 -0.000189776 -0.000215959 -0.00022976 -0.000148977 -0.000167893 -0.000189776 -0.000204765 -0.000167893 -0.000183076 -0.000204765 -0.000216691 -0.000189776 -0.000204765 -0.00022976 -0.000241116 -0.000204765 -0.000216691 -0.000241116 -0.00024999 -0.000199878 -0.000215959 -0.000244449 -0.000256701 -0.000215959 -0.00022976 -0.000256701 -0.00026705 -0.000244449 -0.000256701 -0.000282782 -0.000292472 -0.000256701 -0.00026705 -0.000292472 -0.000300355 -0.00022976 -0.000241116 -0.00026705 -0.000275362 -0.000241116 -0.00024999 -0.000275362 -0.000281616 -0.00026705 -0.000275362 -0.000300355 -0.000306394 -0.000275362 -0.000281616 -0.000306394 -0.000310623 -0.000183076 -0.000194582 -0.000216691 -0.0002256 -0.000194582 -0.000202475 -0.0002256 -0.000231569 -0.000216691 -0.0002256 -0.00024999 -0.000256415 -0.0002256 -0.000231569 -0.000256415 -0.000260441 -0.000202475 -0.000206889 -0.000231569 -0.000234681 -0.000206889 -0.000208174 -0.000234681 -0.000235162 -0.000231569 -0.000234681 -0.000260441 -0.000262106 -0.000234681 -0.000235162 -0.000262106 -0.000261419 -0.00024999 -0.000256415 -0.000281616 -0.000285857 -0.000256415 -0.000260441 -0.000285857 -0.000288129 -0.000281616 -0.000285857 -0.000310623 -0.000313117 -0.000285857 -0.000288129 -0.000313117 -0.000313938 -0.000260441 -0.000262106 -0.000288129 -0.000288427 -0.000262106 -0.000261419 -0.000288427 -0.00028663 -0.000288129 -0.000288427 -0.000313938 -0.00031306 -0.000288427 -0.00028663 -0.00031306 -0.00031029 -0.000282782 -0.000292472 -0.000314211 -0.000322577 -0.000292472 -0.000300355 -0.000322577 -0.000329021 -0.000314211 -0.000322577 -0.000338896 -0.000347002 -0.000322577 -0.000329021 -0.000347002 -0.000352953 -0.000300355 -0.000306394 -0.000329021 -0.000333625 -0.000306394 -0.000310623 -0.000333625 -0.000336497 -0.000329021 -0.000333625 -0.000352953 -0.000356935 -0.000333625 -0.000336497 -0.000356935 -0.000359124 -0.000338896 -0.000347002 -0.000357545 -0.000366223 -0.000347002 -0.000352953 -0.000366223 -0.000372475 -0.000357545 -0.000366223 -0.000371143 -0.000380991 -0.000366223 -0.000372475 -0.000380991 -0.000388158 -0.000352953 -0.000356935 -0.000372475 -0.000376557 -0.000356935 -0.000359124 -0.000376557 -0.000378679 -0.000372475 -0.000376557 -0.000388158 -0.00039292 -0.000376557 -0.000378679 -0.00039292 -0.0003955 -0.000310623 -0.000313117 -0.000336497 -0.000337756 -0.000313117 -0.000313938 -0.000337756 -0.000337487 -0.000336497 -0.000337756 -0.000359124 -0.000359675 -0.000337756 -0.000337487 -0.000359675 -0.000358698 -0.000313938 -0.00031306 -0.000337487 -0.000335672 -0.00031306 -0.00031029 -0.000335672 -0.000332122 -0.000337487 -0.000335672 -0.000358698 -0.000356215 -0.000335672 -0.000332122 -0.000356215 -0.000352088 -0.000359124 -0.000359675 -0.000378679 -0.000379024 -0.000359675 -0.000358698 -0.000379024 -0.000377722 -0.000378679 -0.000379024 -0.0003955 -0.00039608 -0.000379024 -0.000377722 -0.00039608 -0.000394803 -0.000358698 -0.000356215 -0.000377722 -0.000374839 -0.000356215 -0.000352088 -0.000374839 -0.000370323 -0.000377722 -0.000374839 -0.000394803 -0.000391771 -0.000374839 -0.000370323 -0.000391771 -0.000387016 -0.000140762 -0.00018808 -0.00013882 -0.000186305 -0.00018808 -0.000229989 -0.000186305 -0.000228955 -0.00013882 -0.000186305 -0.000134525 -0.000182153 -0.000186305 -0.000228955 -0.000182153 -0.000225421 -0.000229989 -0.000266079 -0.000228955 -0.000266341 -0.000266079 -0.000296436 -0.000266341 -0.000298417 -0.000228955 -0.000266341 -0.000225421 -0.000263904 -0.000266341 -0.000298417 -0.000263904 -0.000297477 -0.000134525 -0.000182153 -0.000128925 -0.000176677 -0.000182153 -0.000225421 -0.000176677 -0.000220473 -0.000128925 -0.000176677 -0.000122963 -0.000170823 -0.000176677 -0.000220473 -0.000170823 -0.000215067 -0.000225421 -0.000263904 -0.000220473 -0.000259896 -0.000263904 -0.000297477 -0.000259896 -0.000294775 -0.000220473 -0.000259896 -0.000215067 -0.000255285 -0.000259896 -0.000294775 -0.000255285 -0.000291276 -0.000296436 -0.000321505 -0.000298417 -0.000325435 -0.000321505 -0.000341903 -0.000325435 -0.000347831 -0.000298417 -0.000325435 -0.000297477 -0.000326268 -0.000325435 -0.000347831 -0.000326268 -0.000350578 -0.000341903 -0.000358264 -0.000347831 -0.