# vtk DataFile Version 3.0
#This file was generated by the deal.II library on 2022/11/17 at 1:19:39
ASCII
DATASET UNSTRUCTURED_GRID

POINTS 10288 double
0.4375 0.75 0
0.46875 0.75 0
0.4375 0.78125 0
0.46875 0.78125 0
0.46875 0.75 0
0.5 0.75 0
0.46875 0.78125 0
0.5 0.78125 0
0.4375 0.78125 0
0.46875 0.78125 0
0.4375 0.8125 0
0.46875 0.8125 0
0.46875 0.78125 0
0.5 0.78125 0
0.46875 0.8125 0
0.5 0.8125 0
0.4375 0.8125 0
0.46875 0.8125 0
0.4375 0.84375 0
0.46875 0.84375 0
0.46875 0.8125 0
0.5 0.8125 0
0.46875 0.84375 0
0.5 0.84375 0
0.4375 0.84375 0
0.46875 0.84375 0
0.4375 0.875 0
0.46875 0.875 0
0.46875 0.84375 0
0.5 0.84375 0
0.46875 0.875 0
0.5 0.875 0
0.375 0.875 0
0.40625 0.875 0
0.375 0.90625 0
0.40625 0.90625 0
0.40625 0.875 0
0.4375 0.875 0
0.40625 0.90625 0
0.4375 0.90625 0
0.375 0.90625 0
0.40625 0.90625 0
0.375 0.9375 0
0.40625 0.9375 0
0.40625 0.90625 0
0.4375 0.90625 0
0.40625 0.9375 0
0.4375 0.9375 0
0.4375 0.875 0
0.46875 0.875 0
0.4375 0.90625 0
0.46875 0.90625 0
0.46875 0.875 0
0.5 0.875 0
0.46875 0.90625 0
0.5 0.90625 0
0.4375 0.90625 0
0.46875 0.90625 0
0.4375 0.9375 0
0.46875 0.9375 0
0.46875 0.90625 0
0.5 0.90625 0
0.46875 0.9375 0
0.5 0.9375 0
0.625 0.5 0
0.65625 0.5 0
0.625 0.53125 0
0.65625 0.53125 0
0.65625 0.5 0
0.6875 0.5 0
0.65625 0.53125 0
0.6875 0.53125 0
0.625 0.53125 0
0.65625 0.53125 0
0.625 0.5625 0
0.65625 0.5625 0
0.65625 0.53125 0
0.6875 0.53125 0
0.65625 0.5625 0
0.6875 0.5625 0
0.6875 0.5 0
0.71875 0.5 0
0.6875 0.53125 0
0.71875 0.53125 0
0.71875 0.5 0
0.75 0.5 0
0.71875 0.53125 0
0.75 0.53125 0
0.6875 0.53125 0
0.71875 0.53125 0
0.6875 0.5625 0
0.71875 0.5625 0
0.71875 0.53125 0
0.75 0.53125 0
0.71875 0.5625 0
0.75 0.5625 0
0.625 0.5625 0
0.65625 0.5625 0
0.625 0.59375 0
0.65625 0.59375 0
0.65625 0.5625 0
0.6875 0.5625 0
0.65625 0.59375 0
0.6875 0.59375 0
0.625 0.59375 0
0.65625 0.59375 0
0.625 0.625 0
0.65625 0.625 0
0.65625 0.59375 0
0.6875 0.59375 0
0.65625 0.625 0
0.6875 0.625 0
0.6875 0.5625 0
0.71875 0.5625 0
0.6875 0.59375 0
0.71875 0.59375 0
0.71875 0.5625 0
0.75 0.5625 0
0.71875 0.59375 0
0.75 0.59375 0
0.6875 0.59375 0
0.71875 0.59375 0
0.6875 0.625 0
0.71875 0.625 0
0.71875 0.59375 0
0.75 0.59375 0
0.71875 0.625 0
0.75 0.625 0
0.5625 0.625 0
0.59375 0.625 0
0.5625 0.65625 0
0.59375 0.65625 0
0.59375 0.625 0
0.625 0.625 0
0.59375 0.65625 0
0.625 0.65625 0
0.5625 0.65625 0
0.59375 0.65625 0
0.5625 0.6875 0
0.59375 0.6875 0
0.59375 0.65625 0
0.625 0.65625 0
0.59375 0.6875 0
0.625 0.6875 0
0.5 0.6875 0
0.53125 0.6875 0
0.5 0.71875 0
0.53125 0.71875 0
0.53125 0.6875 0
0.5625 0.6875 0
0.53125 0.71875 0
0.5625 0.71875 0
0.5 0.71875 0
0.53125 0.71875 0
0.5 0.75 0
0.53125 0.75 0
0.53125 0.71875 0
0.5625 0.71875 0
0.53125 0.75 0
0.5625 0.75 0
0.5625 0.6875 0
0.59375 0.6875 0
0.5625 0.71875 0
0.59375 0.71875 0
0.59375 0.6875 0
0.625 0.6875 0
0.59375 0.71875 0
0.625 0.71875 0
0.5625 0.71875 0
0.59375 0.71875 0
0.5625 0.75 0
0.59375 0.75 0
0.59375 0.71875 0
0.625 0.71875 0
0.59375 0.75 0
0.625 0.75 0
0.625 0.625 0
0.65625 0.625 0
0.625 0.65625 0
0.65625 0.65625 0
0.65625 0.625 0
0.6875 0.625 0
0.65625 0.65625 0
0.6875 0.65625 0
0.625 0.65625 0
0.65625 0.65625 0
0.625 0.6875 0
0.65625 0.6875 0
0.65625 0.65625 0
0.6875 0.65625 0
0.65625 0.6875 0
0.6875 0.6875 0
0.6875 0.625 0
0.71875 0.625 0
0.6875 0.65625 0
0.71875 0.65625 0
0.71875 0.625 0
0.75 0.625 0
0.71875 0.65625 0
0.75 0.65625 0
0.6875 0.65625 0
0.71875 0.65625 0
0.6875 0.6875 0
0.71875 0.6875 0
0.71875 0.65625 0
0.75 0.65625 0
0.71875 0.6875 0
0.75 0.6875 0
0.625 0.6875 0
0.65625 0.6875 0
0.625 0.71875 0
0.65625 0.71875 0
0.65625 0.6875 0
0.6875 0.6875 0
0.65625 0.71875 0
0.6875 0.71875 0
0.625 0.71875 0
0.65625 0.71875 0
0.625 0.75 0
0.65625 0.75 0
0.65625 0.71875 0
0.6875 0.71875 0
0.65625 0.75 0
0.6875 0.75 0
0.6875 0.6875 0
0.71875 0.6875 0
0.6875 0.71875 0
0.71875 0.71875 0
0.71875 0.6875 0
0.75 0.6875 0
0.71875 0.71875 0
0.75 0.71875 0
0.6875 0.71875 0
0.71875 0.71875 0
0.6875 0.75 0
0.71875 0.75 0
0.71875 0.71875 0
0.75 0.71875 0
0.71875 0.75 0
0.75 0.75 0
0.75 0.5 0
0.78125 0.5 0
0.75 0.53125 0
0.78125 0.53125 0
0.78125 0.5 0
0.8125 0.5 0
0.78125 0.53125 0
0.8125 0.53125 0
0.75 0.53125 0
0.78125 0.53125 0
0.75 0.5625 0
0.78125 0.5625 0
0.78125 0.53125 0
0.8125 0.53125 0
0.78125 0.5625 0
0.8125 0.5625 0
0.8125 0.5 0
0.84375 0.5 0
0.8125 0.53125 0
0.84375 0.53125 0
0.84375 0.5 0
0.875 0.5 0
0.84375 0.53125 0
0.875 0.53125 0
0.8125 0.53125 0
0.84375 0.53125 0
0.8125 0.5625 0
0.84375 0.5625 0
0.84375 0.53125 0
0.875 0.53125 0
0.84375 0.5625 0
0.875 0.5625 0
0.75 0.5625 0
0.78125 0.5625 0
0.75 0.59375 0
0.78125 0.59375 0
0.78125 0.5625 0
0.8125 0.5625 0
0.78125 0.59375 0
0.8125 0.59375 0
0.75 0.59375 0
0.78125 0.59375 0
0.75 0.625 0
0.78125 0.625 0
0.78125 0.59375 0
0.8125 0.59375 0
0.78125 0.625 0
0.8125 0.625 0
0.8125 0.5625 0
0.84375 0.5625 0
0.8125 0.59375 0
0.84375 0.59375 0
0.84375 0.5625 0
0.875 0.5625 0
0.84375 0.59375 0
0.875 0.59375 0
0.8125 0.59375 0
0.84375 0.59375 0
0.8125 0.625 0
0.84375 0.625 0
0.84375 0.59375 0
0.875 0.59375 0
0.84375 0.625 0
0.875 0.625 0
0.875 0.5 0
0.90625 0.5 0
0.875 0.53125 0
0.90625 0.53125 0
0.90625 0.5 0
0.9375 0.5 0
0.90625 0.53125 0
0.9375 0.53125 0
0.875 0.53125 0
0.90625 0.53125 0
0.875 0.5625 0
0.90625 0.5625 0
0.90625 0.53125 0
0.9375 0.53125 0
0.90625 0.5625 0
0.9375 0.5625 0
0.9375 0.5 0
0.96875 0.5 0
0.9375 0.53125 0
0.96875 0.53125 0
0.96875 0.5 0
1 0.5 0
0.96875 0.53125 0
1 0.53125 0
0.9375 0.53125 0
0.96875 0.53125 0
0.9375 0.5625 0
0.96875 0.5625 0
0.96875 0.53125 0
1 0.53125 0
0.96875 0.5625 0
1 0.5625 0
0.875 0.5625 0
0.90625 0.5625 0
0.875 0.59375 0
0.90625 0.59375 0
0.90625 0.5625 0
0.9375 0.5625 0
0.90625 0.59375 0
0.9375 0.59375 0
0.875 0.59375 0
0.90625 0.59375 0
0.875 0.625 0
0.90625 0.625 0
0.90625 0.59375 0
0.9375 0.59375 0
0.90625 0.625 0
0.9375 0.625 0
0.9375 0.5625 0
0.96875 0.5625 0
0.9375 0.59375 0
0.96875 0.59375 0
0.96875 0.5625 0
1 0.5625 0
0.96875 0.59375 0
1 0.59375 0
0.9375 0.59375 0
0.96875 0.59375 0
0.9375 0.625 0
0.96875 0.625 0
0.96875 0.59375 0
1 0.59375 0
0.96875 0.625 0
1 0.625 0
0.75 0.625 0
0.78125 0.625 0
0.75 0.65625 0
0.78125 0.65625 0
0.78125 0.625 0
0.8125 0.625 0
0.78125 0.65625 0
0.8125 0.65625 0
0.75 0.65625 0
0.78125 0.65625 0
0.75 0.6875 0
0.78125 0.6875 0
0.78125 0.65625 0
0.8125 0.65625 0
0.78125 0.6875 0
0.8125 0.6875 0
0.8125 0.625 0
0.84375 0.625 0
0.8125 0.65625 0
0.84375 0.65625 0
0.84375 0.625 0
0.875 0.625 0
0.84375 0.65625 0
0.875 0.65625 0
0.8125 0.65625 0
0.84375 0.65625 0
0.8125 0.6875 0
0.84375 0.6875 0
0.84375 0.65625 0
0.875 0.65625 0
0.84375 0.6875 0
0.875 0.6875 0
0.75 0.6875 0
0.78125 0.6875 0
0.75 0.71875 0
0.78125 0.71875 0
0.78125 0.6875 0
0.8125 0.6875 0
0.78125 0.71875 0
0.8125 0.71875 0
0.75 0.71875 0
0.78125 0.71875 0
0.75 0.75 0
0.78125 0.75 0
0.78125 0.71875 0
0.8125 0.71875 0
0.78125 0.75 0
0.8125 0.75 0
0.8125 0.6875 0
0.84375 0.6875 0
0.8125 0.71875 0
0.84375 0.71875 0
0.84375 0.6875 0
0.875 0.6875 0
0.84375 0.71875 0
0.875 0.71875 0
0.8125 0.71875 0
0.84375 0.71875 0
0.8125 0.75 0
0.84375 0.75 0
0.84375 0.71875 0
0.875 0.71875 0
0.84375 0.75 0
0.875 0.75 0
0.875 0.625 0
0.90625 0.625 0
0.875 0.65625 0
0.90625 0.65625 0
0.90625 0.625 0
0.9375 0.625 0
0.90625 0.65625 0
0.9375 0.65625 0
0.875 0.65625 0
0.90625 0.65625 0
0.875 0.6875 0
0.90625 0.6875 0
0.90625 0.65625 0
0.9375 0.65625 0
0.90625 0.6875 0
0.9375 0.6875 0
0.9375 0.625 0
0.96875 0.625 0
0.9375 0.65625 0
0.96875 0.65625 0
0.96875 0.625 0
1 0.625 0
0.96875 0.65625 0
1 0.65625 0
0.9375 0.65625 0
0.96875 0.65625 0
0.9375 0.6875 0
0.96875 0.6875 0
0.96875 0.65625 0
1 0.65625 0
0.96875 0.6875 0
1 0.6875 0
0.875 0.6875 0
0.90625 0.6875 0
0.875 0.71875 0
0.90625 0.71875 0
0.90625 0.6875 0
0.9375 0.6875 0
0.90625 0.71875 0
0.9375 0.71875 0
0.875 0.71875 0
0.90625 0.71875 0
0.875 0.75 0
0.90625 0.75 0
0.90625 0.71875 0
0.9375 0.71875 0
0.90625 0.75 0
0.9375 0.75 0
0.9375 0.6875 0
0.96875 0.6875 0
0.9375 0.71875 0
0.96875 0.71875 0
0.96875 0.6875 0
1 0.6875 0
0.96875 0.71875 0
1 0.71875 0
0.9375 0.71875 0
0.96875 0.71875 0
0.9375 0.75 0
0.96875 0.75 0
0.96875 0.71875 0
1 0.71875 0
0.96875 0.75 0
1 0.75 0
0.5 0.75 0
0.53125 0.75 0
0.5 0.78125 0
0.53125 0.78125 0
0.53125 0.75 0
0.5625 0.75 0
0.53125 0.78125 0
0.5625 0.78125 0
0.5 0.78125 0
0.53125 0.78125 0
0.5 0.8125 0
0.53125 0.8125 0
0.53125 0.78125 0
0.5625 0.78125 0
0.53125 0.8125 0
0.5625 0.8125 0
0.5625 0.75 0
0.59375 0.75 0
0.5625 0.78125 0
0.59375 0.78125 0
0.59375 0.75 0
0.625 0.75 0
0.59375 0.78125 0
0.625 0.78125 0
0.5625 0.78125 0
0.59375 0.78125 0
0.5625 0.8125 0
0.59375 0.8125 0
0.59375 0.78125 0
0.625 0.78125 0
0.59375 0.8125 0
0.625 0.8125 0
0.5 0.8125 0
0.53125 0.8125 0
0.5 0.84375 0
0.53125 0.84375 0
0.53125 0.8125 0
0.5625 0.8125 0
0.53125 0.84375 0
0.5625 0.84375 0
0.5 0.84375 0
0.53125 0.84375 0
0.5 0.875 0
0.53125 0.875 0
0.53125 0.84375 0
0.5625 0.84375 0
0.53125 0.875 0
0.5625 0.875 0
0.5625 0.8125 0
0.59375 0.8125 0
0.5625 0.84375 0
0.59375 0.84375 0
0.59375 0.8125 0
0.625 0.8125 0
0.59375 0.84375 0
0.625 0.84375 0
0.5625 0.84375 0
0.59375 0.84375 0
0.5625 0.875 0
0.59375 0.875 0
0.59375 0.84375 0
0.625 0.84375 0
0.59375 0.875 0
0.625 0.875 0
0.625 0.75 0
0.65625 0.75 0
0.625 0.78125 0
0.65625 0.78125 0
0.65625 0.75 0
0.6875 0.75 0
0.65625 0.78125 0
0.6875 0.78125 0
0.625 0.78125 0
0.65625 0.78125 0
0.625 0.8125 0
0.65625 0.8125 0
0.65625 0.78125 0
0.6875 0.78125 0
0.65625 0.8125 0
0.6875 0.8125 0
0.6875 0.75 0
0.71875 0.75 0
0.6875 0.78125 0
0.71875 0.78125 0
0.71875 0.75 0
0.75 0.75 0
0.71875 0.78125 0
0.75 0.78125 0
0.6875 0.78125 0
0.71875 0.78125 0
0.6875 0.8125 0
0.71875 0.8125 0
0.71875 0.78125 0
0.75 0.78125 0
0.71875 0.8125 0
0.75 0.8125 0
0.625 0.8125 0
0.65625 0.8125 0
0.625 0.84375 0
0.65625 0.84375 0
0.65625 0.8125 0
0.6875 0.8125 0
0.65625 0.84375 0
0.6875 0.84375 0
0.625 0.84375 0
0.65625 0.84375 0
0.625 0.875 0
0.65625 0.875 0
0.65625 0.84375 0
0.6875 0.84375 0
0.65625 0.875 0
0.6875 0.875 0
0.6875 0.8125 0
0.71875 0.8125 0
0.6875 0.84375 0
[...]
POINT_DATA 10288
SCALARS x_dis double 1
LOOKUP_TABLE default
-5.7541e-05 -2.23432e-05 -0.000144725 -9.89974e-05 -2.23432e-05 1.01312e-05 -9.89974e-05 -5.59736e-05 -0.000144725 -9.89974e-05 -0.000224038 -0.000168702 -9.89974e-05 -5.59736e-05 -0.000168702 -0.000116316 -0.000224038 -0.000168702 -0.000293569 -0.000229965 -0.000168702 -0.000116316 -0.000229965 -0.000169469 -0.000293569 -0.000229965 -0.000351635 -0.00028149 -0.000229965 -0.000169469 -0.00028149 -0.000214278 -0.00049896 -0.000424199 -0.000555186 -0.000475974 -0.000424199 -0.000351635 -0.000475974 -0.00039812 -0.000555186 -0.000475974 -0.000595666 -0.000513504 -0.000475974 -0.00039812 -0.000513504 -0.000432176 -0.000351635 -0.00028149 -0.00039812 -0.00032259 -0.00028149 -0.000214278 -0.00032259 -0.000249962 -0.00039812 -0.00032259 -0.000432176 -0.000352766 -0.00032259 -0.000249962 -0.000352766 -0.000276098 0.000360453 0.000307868 0.000336839 0.000302027 0.000307868 0.000267651 0.000302027 0.00027176 0.000336839 0.000302027 0.000299006 0.000282479 0.000302027 0.00027176 0.000282479 0.000264632 0.000267651 0.000235304 0.00027176 0.00024615 0.000235304 0.00020879 0.00024615 0.00022473 0.00027176 0.00024615 0.000264632 0.000247973 0.00024615 0.00022473 0.000247973 0.000233388 0.000299006 0.000282479 0.000267507 0.000260182 0.000282479 0.000264632 0.000260182 0.000252257 0.000267507 0.000260182 0.000240017 0.000238676 0.000260182 0.000252257 0.000238676 0.000238155 0.000264632 0.000247973 0.000252257 0.00024426 0.000247973 0.000233388 0.00024426 0.000236951 0.000252257 0.00024426 0.000238155 0.000237705 0.00024426 0.000236951 0.000237705 0.000237362 0.000253308 0.000243824 0.000210962 0.000209954 0.000243824 0.000240017 0.000209954 0.000212414 0.000210962 0.000209954 0.000165004 0.000173472 0.000209954 0.000212414 0.000173472 0.000183836 0.000149962 0.000157469 7.93175e-05 9.84725e-05 0.000157469 0.000165004 9.84725e-05 0.000116832 7.93175e-05 9.84725e-05 1.01312e-05 4.02746e-05 9.84725e-05 0.000116832 4.02746e-05 6.90223e-05 0.000165004 0.000173472 0.000116832 0.000135284 0.000173472 0.000183836 0.000135284 0.000154204 0.000116832 0.000135284 6.90223e-05 9.6943e-05 0.000135284 0.000154204 9.6943e-05 0.000124362 0.000240017 0.000238676 0.000212414 0.00021742 0.000238676 0.000238155 0.00021742 0.000223492 0.000212414 0.00021742 0.000183836 0.000195749 0.00021742 0.000223492 0.000195749 0.00020843 0.000238155 0.000237705 0.000223492 0.000229789 0.000237705 0.000237362 0.000229789 0.000235955 0.000223492 0.000229789 0.00020843 0.000221162 0.000229789 0.000235955 0.000221162 0.000233509 0.000183836 0.000195749 0.000154204 0.00017358 0.000195749 0.00020843 0.00017358 0.000193041 0.000154204 0.00017358 0.000124362 0.000151305 0.00017358 0.000193041 0.000151305 0.000177589 0.00020843 0.000221162 0.000193041 0.000212125 0.000221162 0.000233509 0.000212125 0.000230447 0.000193041 0.000212125 0.000177589 0.000202934 0.000212125 0.000230447 0.000202934 0.000227042 0.00020879 0.00018703 0.00022473 0.000207038 0.00018703 0.000169406 0.000207038 0.000192702 0.00022473 0.000207038 0.000233388 0.000221126 0.000207038 0.000192702 0.000221126 0.000211188 0.000169406 0.000155514 0.000192702 0.000181421 0.000155514 0.000145036 0.000181421 0.000172936 0.000192702 0.000181421 0.000211188 0.000203481 0.000181421 0.000172936 0.000203481 0.000197877 0.000233388 0.000221126 0.000236951 0.000230765 0.000221126 0.000211188 0.000230765 0.000225898 0.000236951 0.000230765 0.000237362 0.000237342 0.000230765 0.000225898 0.000237342 0.000237817 0.000211188 0.000203481 0.000225898 0.00022241 0.000203481 0.000197877 0.00022241 0.000220291 0.000225898 0.00022241 0.000237817 0.000238885 0.00022241 0.000220291 0.000238885 0.000240589 0.000145036 0.000137656 0.000172936 0.000166996 0.000137656 0.000132997 0.000166996 0.000163343 0.000172936 0.000166996 0.000197877 0.000194237 0.000166996 0.000163343 0.000194237 0.000192404 0.000132997 0.00013059 0.000163343 0.000161689 0.00013059 0.00012996 0.000161689 0.000161617 0.000163343 0.000161689 0.000192404 0.000192165 0.000161689 0.000161617 0.000192165 0.00019315 0.000197877 0.000194237 0.000220291 0.000219491 0.000194237 0.000192404 0.000219491 0.000219925 0.000220291 0.000219491 0.000240589 0.000242931 0.000219491 0.000219925 0.000242931 0.000245869 0.000192404 0.000192165 0.000219925 0.000221433 0.000192165 0.00019315 0.000221433 0.000223678 0.000219925 0.000221433 0.000245869 0.000249286 0.000221433 0.000223678 0.000249286 0.000252934 0.000237362 0.000237342 0.000235955 0.000241931 0.000237342 0.000237817 0.000241931 0.000247757 0.000235955 0.000241931 0.000233509 0.000245251 0.000241931 0.000247757 0.000245251 0.000256304 0.000237817 0.000238885 0.000247757 0.000253483 0.000238885 0.000240589 0.000253483 0.000259148 0.000247757 0.000253483 0.000256304 0.000266642 0.000253483 0.000259148 0.000266642 0.000276265 0.000233509 0.000245251 0.000230447 0.000247738 0.000245251 0.000256304 0.000247738 0.000263834 0.000230447 0.000247738 0.000227042 0.000249652 0.000247738 0.000263834 0.000249652 0.000270569 0.000256304 0.000266642 0.000263834 0.000278648 0.000266642 0.000276265 0.000278648 0.000292133 0.000263834 0.000278648 0.000270569 0.000289662 0.000278648 0.000292133 0.000289662 0.000306844 0.000240589 0.000242931 0.000259148 0.000264764 0.000242931 0.000245869 0.000264764 0.000270312 0.000259148 0.000264764 0.000276265 0.000285171 0.000264764 0.000270312 0.000285171 0.000293347 0.000245869 0.000249286 0.000270312 0.000275719 0.000249286 0.000252934 0.000275719 0.000280839 0.000270312 0.000275719 0.000293347 0.000300761 0.000275719 0.000280839 0.000300761 0.000307359 0.000276265 0.000285171 0.000292133 0.000304261 0.000285171 0.000293347 0.000304261 0.000315016 0.000292133 0.000304261 0.000306844 0.000322059 0.000304261 0.000315016 0.000322059 0.000335286 0.000293347 0.000300761 0.000315016 0.000324397 0.000300761 0.000307359 0.000324397 0.000332429 0.000315016 0.000324397 0.000335286 0.000346548 0.000324397 0.000332429 0.000346548 0.000355927 1.01312e-05 4.02746e-05 -5.59736e-05 -1.54239e-05 4.02746e-05 6.90223e-05 -1.54239e-05 2.30209e-05 -5.59736e-05 -1.54239e-05 -0.000116316 -6.67021e-05 -1.54239e-05 2.30209e-05 -6.67021e-05 -1.9599e-05 6.90223e-05 9.6943e-05 2.30209e-05 5.98486e-05 9.6943e-05 0.000124362 5.98486e-05 9.53529e-05 2.30209e-05 5.98486e-05 -1.9599e-05 2.52926e-05 5.98486e-05 9.53529e-05 2.52926e-05 6.82107e-05 -0.000116316 -6.67021e-05 -0.000169469 -0.000112023 -6.67021e-05 -1.9599e-05 -0.000112023 -5.74473e-05 -0.000169469 -0.000112023 -0.000214278 -0.000150254 -0.000112023 -5.74473e-05 -0.000150254 -8.93925e-05 -1.9599e-05 2.52926e-05 -5.74473e-05 -5.53485e-06 2.52926e-05 6.82107e-05 -5.53485e-06 4.38923e-05 -5.74473e-05 -5.53485e-06 -8.93925e-05 -3.15666e-05 -5.53485e-06 4.38923e-05 -3.15666e-05 2.33181e-05 0.000124362 0.000151305 9.53529e-05 0.000129608 0.000151305 0.000177589 0.000129608 0.000162516 9.53529e-05 0.000129608 6.82107e-05 0.000109246 0.000129608 0.000162516 0.000109246 0.00014835 0.000177589 0.000202934 0.000162516 0.0001939 0.000202934 0.000227042 0.0001939 0.000223534 0.000162516 0.0001939 0.00014835 0.000185392 0.0001939 0.000223534 0.000185392 0.000220183 6.82107e-05 0.000109246 4.38923e-05 9.09429e-05 0.000109246 0.00014835 9.09429e-05 0.000135625 4.38923e-05 9.09429e-05 2.33181e-05 7.54207e-05 9.09429e-05 0.000135625 7.54207e-05 0.000124913 0.00014835 0.000185392 0.000135625 0.000177823 0.000185392 0.000220183 0.000177823 0.000217294 0.000135625 0.000177823 0.000124913 0.000171686 0.000177823 0.000217294 0.000171686 0.000215269 -0.000214278 -0.000150254 -0.000249962 -0.000180592 -0.000150254 -8.93925e-05 -0.000180592 -0.000114608 -0.000249962 -0.000180592 -0.000276098 -0.000202659 -0.000180592 -0.000114608 -0.000202659 -0.000132691 -8.93925e-05 -3.15666e-05 -0.000114608 -5.18843e-05 -3.15666e-05 2.33181e-05 -5.18843e-05 7.6393e-06 -0.000114608 -5.18843e-05 -0.000132691 -6.60151e-05 -5.18843e-05 7.6393e-06 -6.60151e-05 -2.23699e-06 2.33181e-05 7.54207e-05 7.6393e-06 6.37029e-05 7.54207e-05 0.000124913 6.37029e-05 0.000116979 7.6393e-06 6.37029e-05 -2.23699e-06 5.79662e-05 6.37029e-05 0.000116979 5.79662e-05 0.00011291 0.000124913 0.000171686 0.000116979 0.000167681 0.000171686 0.000215269 0.000167681 0.000214423 0.000116979 0.000167681 0.00011291 0.000165414 0.000167681 0.000214423 0.000165414 0.000214638 0.000227042 0.000249652 0.000223534 0.00025118 0.000249652 0.000270569 0.00025118 0.000276639 0.000223534 0.00025118 0.000220183 0.000252497 0.00025118 0.000276639 0.000252497 0.000282139 0.000270569 0.000289662 0.000276639 0.000299753 0.000289662 0.000306844 0.000299753 0.000320404 0.000276639 0.000299753 0.000282139 0.000308939 0.000299753 0.000320404 0.000308939 0.000332762 0.000220183 0.000252497 0.000217294 0.000253796 0.000252497 0.000282139 0.000253796 0.000287143 0.000217294 0.000253796 0.000215269 0.000255261 0.000253796 0.000287143 0.000255261 0.000291698 0.000282139 0.000308939 0.000287143 0.000317202 0.000308939 0.000332762 0.000317202 0.00034382 0.000287143 0.000317202 0.000291698 0.000324475 0.000317202 0.00034382 0.000324475 0.000353449 0.000306844 0.000322059 0.000320404 0.000338513 0.000322059 0.000335286 0.000338513 0.000354054 0.000320404 0.000338513 0.000332762 0.000353511 0.000338513 0.000354054 0.000353511 0.000371155 0.000335286 0.000346548 0.000354054 0.000367064 0.000346548 0.000355927 0.000367064 0.000377669 0.000354054 0.000367064 0.000371155 0.000385741 0.000367064 0.000377669 0.000385741 0.000397424 0.000332762 0.000353511 0.00034382 0.000366891 0.000353511 0.000371155 0.000366891 0.000386374 0.00034382 0.000366891 0.000353449 0.000378448 0.000366891 0.000386374 0.000378448 0.000399456 0.000371155 0.000385741 0.000386374 0.000402328 0.000385741 0.000397424 0.000402328 0.000414923 0.000386374 0.000402328 0.000399456 0.000416539 0.000402328 0.000414923 0.000416539 0.00042987 0.000215269 0.000255261 0.000214423 0.000256993 0.000255261 0.000291698 0.000256993 0.00029567 0.000214423 0.000256993 0.000214638 0.000258027 0.000256993 0.00029567 0.000258027 0.00029935 0.000291698 0.000324475 0.00029567 0.00033071 0.000324475 0.000353449 0.00033071 0.000361475 0.00029567 0.00033071 0.00029935 0.000335782 0.00033071 0.000361475 0.000335782 0.000367651 0.000214638 0.000258027 0.000212882 0.000261323 0.000258027 0.00029935 0.000261323 0.000302778 0.000212882 0.000261323 0.000224585 0.000265853 0.000261323 0.000302778 0.000265853 0.000304456 0.00029935 0.000335782 0.000302778 0.000339336 0.000335782 0.000367651 0.000339336 0.000371626 0.000302778 0.000339336 0.000304456 0.000340688 0.000339336 0.000371626 0.000340688 0.000373011 0.000353449 0.000378448 0.000361475 0.000387937 0.000378448 0.000399456 0.000387937 0.000410112 0.000361475 0.000387937 0.000367651 0.000395065 0.000387937 0.000410112 0.000395065 0.000418033 0.000399456 0.000416539 0.000410112 0.000428065 0.000416539 0.00042987 0.000428065 0.000441951 0.000410112 0.000428065 0.000418033 0.000436593 0.000428065 0.000441951 0.000436593 0.000450859 0.000367651 0.000395065 0.000371626 0.00039952 0.000395065 0.000418033 0.00039952 0.000422932 0.000371626 0.00039952 0.000373011 0.000401041 0.00039952 0.000422932 0.000401041 0.000424592 0.000418033 0.000436593 0.000422932 0.000441842 0.000436593 0.000450859 0.000441842 0.000456328 0.000422932 0.000441842 0.000424592 0.000443616 0.000441842 0.000456328 0.000443616 0.000458173 -0.000630928 -0.000569537 -0.0006237 -0.000562705 -0.000569537 -0.000509616 -0.000562705 -0.000503247 -0.0006237 -0.000562705 -0.000602096 -0.000542315 -0.000562705 -0.000503247 -0.000542315 -0.000484259 -0.000509616 -0.000452137 -0.000503247 -0.000446274 -0.000452137 -0.000397706 -0.000446274 -0.000392371 -0.000503247 -0.000446274 -0.000484259 -0.000428811 -0.000446274 -0.000392371 -0.000428811 -0.000376497 -0.000602096 -0.000542315 -0.000566359 -0.000508674 -0.000542315 -0.000484259 -0.000508674 -0.000453005 -0.000566359 -0.000508674 -0.000516893 -0.000462293 -0.000508674 -0.000453005 -0.000462293 -0.000410064 -0.000484259 -0.000428811 -0.000453005 -0.000400126 -0.000428811 -0.000376497 -0.000400126 -0.000350472 -0.000453005 -0.000400126 -0.000410064 -0.000360838 -0.000400126 -0.000350472 -0.000360838 -0.000314934 -0.000516893 -0.000462293 -0.000454265 -0.000403881 -0.000462293 -0.000410064 -0.000403881 -0.000356226 -0.000454265 -0.000403881 -0.000379209 -0.000334177 -0.000403881 -0.000356226 -0.000334177 -0.000292564 -0.000410064 -0.000360838 -0.000356226 -0.000311813 -0.000360838 -0.000314934 -0.000311813 -0.000270771 -0.000356226 -0.000311813 -0.000292564 -0.000254219 -0.000311813 -0.000270771 -0.000254219 -0.00021911 -0.000292564 -0.000254219 -0.000220754 -0.000189428 -0.000254219 -0.00021911 -0.000189428 -0.000161303 -0.000220754 -0.000189428 -0.000141772 -0.000118925 -0.000189428 -0.000161303 -0.000118925 -9.88847e-05 -0.000141772 -0.000118925 -5.78925e-05 -4.47108e-05 -0.000118925 -9.88847e-05 -4.47108e-05 -3.3711e-05 -5.78925e-05 -4.47108e-05 2.83239e-05 3.09453e-05 -4.47108e-05 -3.3711e-05 3.09453e-05 3.19748e-05 -0.000397706 -0.000346628 -0.000392371 -0.000341827 -0.000346628 -0.000299015 -0.000341827 -0.000294742 -0.000392371 -0.000341827 -0.000376497 -0.000327557 -0.000341827 -0.000294742 -0.000327557 -0.000282052 -0.000299015 -0.000254885 -0.000294742 -0.000251123 -0.000254885 -0.000214172 -0.000251123 -0.000210896 -0.000294742 -0.000251123 -0.000282052 -0.000239958 -0.000251123 -0.000210896 -0.000239958 -0.000201177 -0.000376497 -0.000327557 -0.000350472 -0.000304203 -0.000327557 -0.000282052 -0.000304203 -0.000261316 -0.000350472 -0.000304203 -0.000314934 -0.000272399 -0.000304203 -0.000261316 -0.000272399 -0.000233144 -0.000282052 -0.000239958 -0.000261316 -0.000221738 -0.000239958 -0.000201177 -0.000221738 -0.000185332 -0.000261316 -0.000221738 -0.000233144 -0.000197035 -0.000221738 -0.000185332 -0.000197035 -0.000163882 -0.000214172 -0.000176732 -0.000210896 -0.00017391 -0.000176732 -0.000142394 -0.00017391 -0.000139993 -0.000210896 -0.00017391 -0.000201177 -0.000165541 -0.00017391 -0.000139993 -0.000165541 -0.000132874 -0.000142394 -0.000111004 -0.000139993 -0.000108988 -0.000111004 -8.24149e-05 -0.000108988 -8.0747e-05 -0.000139993 -0.000108988 -0.000132874 -0.000103011 -0.000108988 -8.0747e-05 -0.000103011 -7.58021e-05 -0.000201177 -0.000165541 -0.000185332 -0.000151909 -0.000165541 -0.000132874 -0.000151909 -0.000121284 -0.000185332 -0.000151909 -0.000163882 -0.000133479 -0.000151909 -0.000121284 -0.000133479 -0.00010563 -0.000132874 -0.000103011 -0.000121284 -9.32838e-05 -0.000103011 -7.58021e-05 -9.32838e-05 -6.77549e-05 -0.000121284 -9.32838e-05 -0.00010563 -8.01522e-05 -9.32838e-05 -6.77549e-05 -8.01522e-05 -5.68922e-05 -0.000314934 -0.000272399 -0.000270771 -0.000233011 -0.000272399 -0.000233144 -0.000233011 -0.000198366 -0.000270771 -0.000233011 -0.00021911 -0.000187132 -0.000233011 -0.000198366 -0.000187132 -0.000158005 -0.000233144 -0.000197035 -0.000198366 -0.000166615 -0.000197035 -0.000163882 -0.000166615 -0.00013753 -0.000198366 -0.000166615 -0.000158005 -0.000131435 -0.000166615 -0.00013753 -0.000131435 -0.000107146 -0.00021911 -0.000187132 -0.000161303 -0.000136046 -0.000187132 -0.000158005 -0.000136046 -0.000113282 -0.000161303 -0.000136046 -9.88847e-05 -8.12662e-05 -0.000136046 -0.000113282 -8.12662e-05 -6.56178e-05 -0.000158005 -0.000131435 -0.000113282 -9.26257e-05 -0.000131435 -0.000107146 -9.26257e-05 -7.37576e-05 -0.000113282 -9.26257e-05 -6.56178e-05 -5.14951e-05 -9.26257e-05 -7.37576e-05 -5.14951e-05 -3.85325e-05 -0.000163882 -0.000133479 -0.00013753 -0.000110881 -0.000133479 -0.00010563 -0.000110881 -8.64601e-05 -0.00013753 -0.000110881 -0.000107146 -8.48898e-05 -0.000110881 -8.64601e-05 -8.48898e-05 -6.44542e-05 -0.00010563 -8.01522e-05 -8.64601e-05 -6.40858e-05 -8.01522e-05 -5.68922e-05 -6.40858e-05 -4.36067e-05 -8.64601e-05 -6.40858e-05 -6.44542e-05 -4.56654e-05 -6.40858e-05 -4.36067e-05 -4.56654e-05 -2.83858e-05 -0.000107146 -8.48898e-05 -7.37576e-05 -5.64165e-05 -8.48898e-05 -6.44542e-05 -5.64165e-05 -4.04025e-05 -7.37576e-05 -5.64165e-05 -3.85325e-05 -2.64865e-05 -5.64165e-05 -4.04025e-05 -2.64865e-05 -1.5189e-05 -6.44542e-05 -4.56654e-05 -4.04025e-05 -2.55663e-05 -4.56654e-05 -2.83858e-05 -2.55663e-05 -1.17972e-05 -4.04025e-05 -2.55663e-05 -1.5189e-05 -4.53851e-06 -2.55663e-05 -1.17972e-05 -4.53851e-06 5.52731e-06 -8.24149e-05 -5.64989e-05 -8.0747e-05 -5.51418e-05 -5.64989e-05 -3.31456e-05 -5.51418e-05 -3.20619e-05 -8.0747e-05 -5.51418e-05 -7.58021e-05 -5.11175e-05 -5.51418e-05 -3.20619e-05 -5.11175e-05 -2.8847e-05 -3.31456e-05 -1.22624e-05 -3.20619e-05 -1.14151e-05 -1.22624e-05 6.23984e-06 -1.14151e-05 6.88693e-06 -3.20619e-05 -1.14151e-05 -2.8847e-05 -8.89977e-06 -1.14151e-05 6.88693e-06 -8.89977e-06 8.80992e-06 -7.58021e-05 -5.11175e-05 -6.77549e-05 -4.45663e-05 -5.11175e-05 -2.8847e-05 -4.45663e-05 -2.36097e-05 -6.77549e-05 -4.45663e-05 -5.68922e-05 -3.57204e-05 -4.45663e-05 -2.36097e-05 -3.57204e-05 -1.65325e-05 -2.8847e-05 -8.89977e-06 -2.36097e-05 -4.79733e-06 -8.89977e-06 8.80992e-06 -4.79733e-06 1.19519e-05 -2.36097e-05 -4.79733e-06 -1.65325e-05 7.53831e-07 -4.79733e-06 1.19519e-05 7.53831e-07 1.62121e-05 6.23984e-06 2.24732e-05 6.88693e-06 2.29547e-05 2.24732e-05 3.65997e-05 2.29547e-05 3.69475e-05 6.88693e-06 2.29547e-05 8.80992e-06 2.43877e-05 2.29547e-05 3.69475e-05 2.43877e-05 3.79848e-05 3.65997e-05 4.88604e-05 3.69475e-05 4.91026e-05 4.88604e-05 5.96042e-05 4.91026e-05 5.97639e-05 3.69475e-05 4.91026e-05 3.79848e-05 4.98267e-05 4.91026e-05 5.97639e-05 4.98267e-05 6.0242e-05 8.80992e-06 2.43877e-05 1.19519e-05 2.67351e-05 2.43877e-05 3.79848e-05 2.67351e-05 3.96899e-05 1.19519e-05 2.67351e-05 1.62121e-05 2.9927e-05 2.67351e-05 3.96899e-05 2.9927e-05 4.20169e-05 3.79848e-05 4.98267e-05 3.96899e-05 5.10216e-05 4.98267e-05 6.0242e-05 5.10216e-05 6.1032e-05 3.96899e-05 5.10216e-05 4.20169e-05 5.26583e-05 5.10216e-05 6.1032e-05 5.26583e-05 6.21133e-05 -5.68922e-05 -3.57204e-05 -4.36067e-05 -2.49003e-05 -3.57204e-05 -1.65325e-05 -2.49003e-05 -7.87089e-06 -4.36067e-05 -2.49003e-05 -2.83858e-05 -1.25076e-05 -2.49003e-05 -7.87089e-06 -1.25076e-05 2.04936e-06 -1.65325e-05 7.53831e-07 -7.87089e-06 7.55476e-06 7.53831e-07 1.62121e-05 7.55476e-06 2.14394e-05 -7.87089e-06 7.55476e-06 2.04936e-06 1.53449e-05 7.55476e-06 2.14394e-05 1.53449e-05 2.7428e-05 -2.83858e-05 -1.25076e-05 -1.17972e-05 9.85287e-07 -1.25076e-05 2.04936e-06 9.85287e-07 1.28386e-05 -1.17972e-05 9.85287e-07 5.52731e-06 1.50483e-05 9.85287e-07 1.28386e-05 1.50483e-05 2.40532e-05 2.04936e-06 1.53449e-05 1.28386e-05 2.3805e-05 1.53449e-05 2.7428e-05 2.3805e-05 3.39167e-05 1.28386e-05 2.3805e-05 2.40532e-05 3.25642e-05 2.3805e-05 3.39167e-05 3.25642e-05 4.05947e-05 1.62121e-05 2.9927e-05 2.14394e-05 3.38517e-05 2.9927e-05 4.20169e-05 3.38517e-05 4.48848e-05 2.14394e-05 3.38517e-05 2.7428e-05 3.83476e-05 3.38517e-05 4.48848e-05 3.83476e-05 4.81668e-05 4.20169e-05 5.26583e-05 4.48848e-05 5.46774e-05 5.26583e-05 6.21133e-05 5.46774e-05 6.34391e-05 4.48848e-05 5.46774e-05 4.81668e-05 5.69784e-05 5.46774e-05 6.34391e-05 5.69784e-05 6.49262e-05 2.7428e-05 3.83476e-05 3.39167e-05 4.32009e-05 3.83476e-05 4.81668e-05 4.32009e-05 5.16862e-05 3.39167e-05 4.32009e-05 4.05947e-05 4.81485e-05 4.32009e-05 5.16862e-05 4.81485e-05 5.52182e-05 4.81668e-05 5.69784e-05 5.16862e-05 5.94133e-05 5.69784e-05 6.49262e-05 5.94133e-05 6.64491e-05 5.16862e-05 5.94133e-05 5.52182e-05 6.17884e-05 5.94133e-05 6.64491e-05 6.17884e-05 6.78412e-05 -9.88847e-05 -8.12662e-05 -3.3711e-05 -2.45377e-05 -8.12662e-05 -6.56178e-05 -2.45377e-05 -1.66595e-05 -3.3711e-05 -2.45377e-05 3.19748e-05 3.2048e-05 -2.45377e-05 -1.66595e-05 3.2048e-05 3.1884e-05 -6.56178e-05 -5.14951e-05 -1.66595e-05 -9.50386e-06 -5.14951e-05 -3.85325e-05 -9.50386e-06 -2.77169e-06 -1.66595e-05 -9.50386e-06 3.1884e-05 3.16896e-05 -9.50386e-06 -2.77169e-06 3.16896e-05 3.21005e-05 3.1884e-05 3.16896e-05 7.74202e-05 7.01947e-05 3.16896e-05 3.21005e-05 7.01947e-05 6.46023e-05 7.7