# vtk DataFile Version 3.0
#This file was generated by the deal.II library on 2022/11/17 at 1:16:06
ASCII
DATASET UNSTRUCTURED_GRID

POINTS 10240 double
0.4375 0.75 0
0.46875 0.75 0
0.4375 0.78125 0
0.46875 0.78125 0
0.46875 0.75 0
0.5 0.75 0
0.46875 0.78125 0
0.5 0.78125 0
0.4375 0.78125 0
0.46875 0.78125 0
0.4375 0.8125 0
0.46875 0.8125 0
0.46875 0.78125 0
0.5 0.78125 0
0.46875 0.8125 0
0.5 0.8125 0
0.4375 0.8125 0
0.46875 0.8125 0
0.4375 0.84375 0
0.46875 0.84375 0
0.46875 0.8125 0
0.5 0.8125 0
0.46875 0.84375 0
0.5 0.84375 0
0.4375 0.84375 0
0.46875 0.84375 0
0.4375 0.875 0
0.46875 0.875 0
0.46875 0.84375 0
0.5 0.84375 0
0.46875 0.875 0
0.5 0.875 0
0.375 0.875 0
0.40625 0.875 0
0.375 0.90625 0
0.40625 0.90625 0
0.40625 0.875 0
0.4375 0.875 0
0.40625 0.90625 0
0.4375 0.90625 0
0.375 0.90625 0
0.40625 0.90625 0
0.375 0.9375 0
0.40625 0.9375 0
0.40625 0.90625 0
0.4375 0.90625 0
0.40625 0.9375 0
0.4375 0.9375 0
0.4375 0.875 0
0.46875 0.875 0
0.4375 0.90625 0
0.46875 0.90625 0
0.46875 0.875 0
0.5 0.875 0
0.46875 0.90625 0
0.5 0.90625 0
0.4375 0.90625 0
0.46875 0.90625 0
0.4375 0.9375 0
0.46875 0.9375 0
0.46875 0.90625 0
0.5 0.90625 0
0.46875 0.9375 0
0.5 0.9375 0
0.625 0.5 0
0.65625 0.5 0
0.625 0.53125 0
0.65625 0.53125 0
0.65625 0.5 0
0.6875 0.5 0
0.65625 0.53125 0
0.6875 0.53125 0
0.625 0.53125 0
0.65625 0.53125 0
0.625 0.5625 0
0.65625 0.5625 0
0.65625 0.53125 0
0.6875 0.53125 0
0.65625 0.5625 0
0.6875 0.5625 0
0.6875 0.5 0
0.71875 0.5 0
0.6875 0.53125 0
0.71875 0.53125 0
0.71875 0.5 0
0.75 0.5 0
0.71875 0.53125 0
0.75 0.53125 0
0.6875 0.53125 0
0.71875 0.53125 0
0.6875 0.5625 0
0.71875 0.5625 0
0.71875 0.53125 0
0.75 0.53125 0
0.71875 0.5625 0
0.75 0.5625 0
0.625 0.5625 0
0.65625 0.5625 0
0.625 0.59375 0
0.65625 0.59375 0
0.65625 0.5625 0
0.6875 0.5625 0
0.65625 0.59375 0
0.6875 0.59375 0
0.625 0.59375 0
0.65625 0.59375 0
0.625 0.625 0
0.65625 0.625 0
0.65625 0.59375 0
0.6875 0.59375 0
0.65625 0.625 0
0.6875 0.625 0
0.6875 0.5625 0
0.71875 0.5625 0
0.6875 0.59375 0
0.71875 0.59375 0
0.71875 0.5625 0
0.75 0.5625 0
0.71875 0.59375 0
0.75 0.59375 0
0.6875 0.59375 0
0.71875 0.59375 0
0.6875 0.625 0
0.71875 0.625 0
0.71875 0.59375 0
0.75 0.59375 0
0.71875 0.625 0
0.75 0.625 0
0.5625 0.625 0
0.59375 0.625 0
0.5625 0.65625 0
0.59375 0.65625 0
0.59375 0.625 0
0.625 0.625 0
0.59375 0.65625 0
0.625 0.65625 0
0.5625 0.65625 0
0.59375 0.65625 0
0.5625 0.6875 0
0.59375 0.6875 0
0.59375 0.65625 0
0.625 0.65625 0
0.59375 0.6875 0
0.625 0.6875 0
0.5 0.6875 0
0.53125 0.6875 0
0.5 0.71875 0
0.53125 0.71875 0
0.53125 0.6875 0
0.5625 0.6875 0
0.53125 0.71875 0
0.5625 0.71875 0
0.5 0.71875 0
0.53125 0.71875 0
0.5 0.75 0
0.53125 0.75 0
0.53125 0.71875 0
0.5625 0.71875 0
0.53125 0.75 0
0.5625 0.75 0
0.5625 0.6875 0
0.59375 0.6875 0
0.5625 0.71875 0
0.59375 0.71875 0
0.59375 0.6875 0
0.625 0.6875 0
0.59375 0.71875 0
0.625 0.71875 0
0.5625 0.71875 0
0.59375 0.71875 0
0.5625 0.75 0
0.59375 0.75 0
0.59375 0.71875 0
0.625 0.71875 0
0.59375 0.75 0
0.625 0.75 0
0.625 0.625 0
0.65625 0.625 0
0.625 0.65625 0
0.65625 0.65625 0
0.65625 0.625 0
0.6875 0.625 0
0.65625 0.65625 0
0.6875 0.65625 0
0.625 0.65625 0
0.65625 0.65625 0
0.625 0.6875 0
0.65625 0.6875 0
0.65625 0.65625 0
0.6875 0.65625 0
0.65625 0.6875 0
0.6875 0.6875 0
0.6875 0.625 0
0.71875 0.625 0
0.6875 0.65625 0
0.71875 0.65625 0
0.71875 0.625 0
0.75 0.625 0
0.71875 0.65625 0
0.75 0.65625 0
0.6875 0.65625 0
0.71875 0.65625 0
0.6875 0.6875 0
0.71875 0.6875 0
0.71875 0.65625 0
0.75 0.65625 0
0.71875 0.6875 0
0.75 0.6875 0
0.625 0.6875 0
0.65625 0.6875 0
0.625 0.71875 0
0.65625 0.71875 0
0.65625 0.6875 0
0.6875 0.6875 0
0.65625 0.71875 0
0.6875 0.71875 0
0.625 0.71875 0
0.65625 0.71875 0
0.625 0.75 0
0.65625 0.75 0
0.65625 0.71875 0
0.6875 0.71875 0
0.65625 0.75 0
0.6875 0.75 0
0.6875 0.6875 0
0.71875 0.6875 0
0.6875 0.71875 0
0.71875 0.71875 0
0.71875 0.6875 0
0.75 0.6875 0
0.71875 0.71875 0
0.75 0.71875 0
0.6875 0.71875 0
0.71875 0.71875 0
0.6875 0.75 0
0.71875 0.75 0
0.71875 0.71875 0
0.75 0.71875 0
0.71875 0.75 0
0.75 0.75 0
0.75 0.5 0
0.78125 0.5 0
0.75 0.53125 0
0.78125 0.53125 0
0.78125 0.5 0
0.8125 0.5 0
0.78125 0.53125 0
0.8125 0.53125 0
0.75 0.53125 0
0.78125 0.53125 0
0.75 0.5625 0
0.78125 0.5625 0
0.78125 0.53125 0
0.8125 0.53125 0
0.78125 0.5625 0
0.8125 0.5625 0
0.8125 0.5 0
0.84375 0.5 0
0.8125 0.53125 0
0.84375 0.53125 0
0.84375 0.5 0
0.875 0.5 0
0.84375 0.53125 0
0.875 0.53125 0
0.8125 0.53125 0
0.84375 0.53125 0
0.8125 0.5625 0
0.84375 0.5625 0
0.84375 0.53125 0
0.875 0.53125 0
0.84375 0.5625 0
0.875 0.5625 0
0.75 0.5625 0
0.78125 0.5625 0
0.75 0.59375 0
0.78125 0.59375 0
0.78125 0.5625 0
0.8125 0.5625 0
0.78125 0.59375 0
0.8125 0.59375 0
0.75 0.59375 0
0.78125 0.59375 0
0.75 0.625 0
0.78125 0.625 0
0.78125 0.59375 0
0.8125 0.59375 0
0.78125 0.625 0
0.8125 0.625 0
0.8125 0.5625 0
0.84375 0.5625 0
0.8125 0.59375 0
0.84375 0.59375 0
0.84375 0.5625 0
0.875 0.5625 0
0.84375 0.59375 0
0.875 0.59375 0
0.8125 0.59375 0
0.84375 0.59375 0
0.8125 0.625 0
0.84375 0.625 0
0.84375 0.59375 0
0.875 0.59375 0
0.84375 0.625 0
0.875 0.625 0
0.875 0.5 0
0.90625 0.5 0
0.875 0.53125 0
0.90625 0.53125 0
0.90625 0.5 0
0.9375 0.5 0
0.90625 0.53125 0
0.9375 0.53125 0
0.875 0.53125 0
0.90625 0.53125 0
0.875 0.5625 0
0.90625 0.5625 0
0.90625 0.53125 0
0.9375 0.53125 0
0.90625 0.5625 0
0.9375 0.5625 0
0.9375 0.5 0
0.96875 0.5 0
0.9375 0.53125 0
0.96875 0.53125 0
0.96875 0.5 0
1 0.5 0
0.96875 0.53125 0
1 0.53125 0
0.9375 0.53125 0
0.96875 0.53125 0
0.9375 0.5625 0
0.96875 0.5625 0
0.96875 0.53125 0
1 0.53125 0
0.96875 0.5625 0
1 0.5625 0
0.875 0.5625 0
0.90625 0.5625 0
0.875 0.59375 0
0.90625 0.59375 0
0.90625 0.5625 0
0.9375 0.5625 0
0.90625 0.59375 0
0.9375 0.59375 0
0.875 0.59375 0
0.90625 0.59375 0
0.875 0.625 0
0.90625 0.625 0
0.90625 0.59375 0
0.9375 0.59375 0
0.90625 0.625 0
0.9375 0.625 0
0.9375 0.5625 0
0.96875 0.5625 0
0.9375 0.59375 0
0.96875 0.59375 0
0.96875 0.5625 0
1 0.5625 0
0.96875 0.59375 0
1 0.59375 0
0.9375 0.59375 0
0.96875 0.59375 0
0.9375 0.625 0
0.96875 0.625 0
0.96875 0.59375 0
1 0.59375 0
0.96875 0.625 0
1 0.625 0
0.75 0.625 0
0.78125 0.625 0
0.75 0.65625 0
0.78125 0.65625 0
0.78125 0.625 0
0.8125 0.625 0
0.78125 0.65625 0
0.8125 0.65625 0
0.75 0.65625 0
0.78125 0.65625 0
0.75 0.6875 0
0.78125 0.6875 0
0.78125 0.65625 0
0.8125 0.65625 0
0.78125 0.6875 0
0.8125 0.6875 0
0.8125 0.625 0
0.84375 0.625 0
0.8125 0.65625 0
0.84375 0.65625 0
0.84375 0.625 0
0.875 0.625 0
0.84375 0.65625 0
0.875 0.65625 0
0.8125 0.65625 0
0.84375 0.65625 0
0.8125 0.6875 0
0.84375 0.6875 0
0.84375 0.65625 0
0.875 0.65625 0
0.84375 0.6875 0
0.875 0.6875 0
0.75 0.6875 0
0.78125 0.6875 0
0.75 0.71875 0
0.78125 0.71875 0
0.78125 0.6875 0
0.8125 0.6875 0
0.78125 0.71875 0
0.8125 0.71875 0
0.75 0.71875 0
0.78125 0.71875 0
0.75 0.75 0
0.78125 0.75 0
0.78125 0.71875 0
0.8125 0.71875 0
0.78125 0.75 0
0.8125 0.75 0
0.8125 0.6875 0
0.84375 0.6875 0
0.8125 0.71875 0
0.84375 0.71875 0
0.84375 0.6875 0
0.875 0.6875 0
0.84375 0.71875 0
0.875 0.71875 0
0.8125 0.71875 0
0.84375 0.71875 0
0.8125 0.75 0
0.84375 0.75 0
0.84375 0.71875 0
0.875 0.71875 0
0.84375 0.75 0
0.875 0.75 0
0.875 0.625 0
0.90625 0.625 0
0.875 0.65625 0
0.90625 0.65625 0
0.90625 0.625 0
0.9375 0.625 0
0.90625 0.65625 0
0.9375 0.65625 0
0.875 0.65625 0
0.90625 0.65625 0
0.875 0.6875 0
0.90625 0.6875 0
0.90625 0.65625 0
0.9375 0.65625 0
0.90625 0.6875 0
0.9375 0.6875 0
0.9375 0.625 0
0.96875 0.625 0
0.9375 0.65625 0
0.96875 0.65625 0
0.96875 0.625 0
1 0.625 0
0.96875 0.65625 0
1 0.65625 0
0.9375 0.65625 0
0.96875 0.65625 0
0.9375 0.6875 0
0.96875 0.6875 0
0.96875 0.65625 0
1 0.65625 0
0.96875 0.6875 0
1 0.6875 0
0.875 0.6875 0
0.90625 0.6875 0
0.875 0.71875 0
0.90625 0.71875 0
0.90625 0.6875 0
0.9375 0.6875 0
0.90625 0.71875 0
0.9375 0.71875 0
0.875 0.71875 0
0.90625 0.71875 0
0.875 0.75 0
0.90625 0.75 0
0.90625 0.71875 0
0.9375 0.71875 0
0.90625 0.75 0
0.9375 0.75 0
0.9375 0.6875 0
0.96875 0.6875 0
0.9375 0.71875 0
0.96875 0.71875 0
0.96875 0.6875 0
1 0.6875 0
0.96875 0.71875 0
1 0.71875 0
0.9375 0.71875 0
0.96875 0.71875 0
0.9375 0.75 0
0.96875 0.75 0
0.96875 0.71875 0
1 0.71875 0
0.96875 0.75 0
1 0.75 0
0.5 0.75 0
0.53125 0.75 0
0.5 0.78125 0
0.53125 0.78125 0
0.53125 0.75 0
0.5625 0.75 0
0.53125 0.78125 0
0.5625 0.78125 0
0.5 0.78125 0
0.53125 0.78125 0
0.5 0.8125 0
0.53125 0.8125 0
0.53125 0.78125 0
0.5625 0.78125 0
0.53125 0.8125 0
0.5625 0.8125 0
0.5625 0.75 0
0.59375 0.75 0
0.5625 0.78125 0
0.59375 0.78125 0
0.59375 0.75 0
0.625 0.75 0
0.59375 0.78125 0
0.625 0.78125 0
0.5625 0.78125 0
0.59375 0.78125 0
0.5625 0.8125 0
0.59375 0.8125 0
0.59375 0.78125 0
0.625 0.78125 0
0.59375 0.8125 0
0.625 0.8125 0
0.5 0.8125 0
0.53125 0.8125 0
0.5 0.84375 0
0.53125 0.84375 0
0.53125 0.8125 0
0.5625 0.8125 0
0.53125 0.84375 0
0.5625 0.84375 0
0.5 0.84375 0
0.53125 0.84375 0
0.5 0.875 0
0.53125 0.875 0
0.53125 0.84375 0
0.5625 0.84375 0
0.53125 0.875 0
0.5625 0.875 0
0.5625 0.8125 0
0.59375 0.8125 0
0.5625 0.84375 0
0.59375 0.84375 0
0.59375 0.8125 0
0.625 0.8125 0
0.59375 0.84375 0
0.625 0.84375 0
0.5625 0.84375 0
0.59375 0.84375 0
0.5625 0.875 0
0.59375 0.875 0
0.59375 0.84375 0
0.625 0.84375 0
0.59375 0.875 0
0.625 0.875 0
0.625 0.75 0
0.65625 0.75 0
0.625 0.78125 0
0.65625 0.78125 0
0.65625 0.75 0
0.6875 0.75 0
0.65625 0.78125 0
0.6875 0.78125 0
0.625 0.78125 0
0.65625 0.78125 0
0.625 0.8125 0
0.65625 0.8125 0
0.65625 0.78125 0
0.6875 0.78125 0
0.65625 0.8125 0
0.6875 0.8125 0
0.6875 0.75 0
0.71875 0.75 0
0.6875 0.78125 0
0.71875 0.78125 0
0.71875 0.75 0
0.75 0.75 0
0.71875 0.78125 0
0.75 0.78125 0
0.6875 0.78125 0
0.71875 0.78125 0
0.6875 0.8125 0
0.71875 0.8125 0
0.71875 0.78125 0
0.75 0.78125 0
0.71875 0.8125 0
0.75 0.8125 0
0.625 0.8125 0
0.65625 0.8125 0
0.625 0.84375 0
0.65625 0.84375 0
0.65625 0.8125 0
0.6875 0.8125 0
0.65625 0.84375 0
0.6875 0.84375 0
0.625 0.84375 0
0.65625 0.84375 0
0.625 0.875 0
0.65625 0.875 0
0.65625 0.84375 0
0.6875 0.84375 0
0.65625 0.875 0
0.6875 0.875 0
0.6875 0.8125 0
0.71875 0.8125 0
0.6875 0.84375 0
[...]
POINT_DATA 10240
SCALARS x_dis double 1
LOOKUP_TABLE default
-9.21886e-05 -5.94694e-05 -0.000190394 -0.000147557 -5.94694e-05 -2.92012e-05 -0.000147557 -0.000107026 -0.000190394 -0.000147557 -0.000279388 -0.000227511 -0.000147557 -0.000107026 -0.000227511 -0.000178043 -0.000279388 -0.000227511 -0.000357246 -0.000297774 -0.000227511 -0.000178043 -0.000297774 -0.000240653 -0.000357246 -0.000297774 -0.0004223 -0.000356854 -0.000297774 -0.000240653 -0.000356854 -0.000293454 -0.00055643 -0.000488996 -0.000616622 -0.000545561 -0.000488996 -0.0004223 -0.000545561 -0.000474226 -0.000616622 -0.000545561 -0.000659896 -0.000586547 -0.000545561 -0.000474226 -0.000586547 -0.000512184 -0.0004223 -0.000356854 -0.000474226 -0.000403871 -0.000356854 -0.000293454 -0.000403871 -0.000335367 -0.000474226 -0.000403871 -0.000512184 -0.000438238 -0.000403871 -0.000335367 -0.000438238 -0.000365849 0.000408576 0.000353409 0.000376661 0.000339193 0.000353409 0.000310771 0.000339193 0.000306674 0.000376661 0.000339193 0.000329243 0.000310008 0.000339193 0.000306674 0.000310008 0.000290017 0.000310771 0.000276341 0.000306674 0.000279175 0.000276341 0.000248117 0.000279175 0.000256211 0.000306674 0.000279175 0.000290017 0.000271657 0.000279175 0.000256211 0.000271657 0.000255751 0.000329243 0.000310008 0.000286427 0.00027672 0.000310008 0.000290017 0.00027672 0.000266896 0.000286427 0.00027672 0.000246419 0.000243128 0.00027672 0.000266896 0.000243128 0.000241046 0.000290017 0.000271657 0.000266896 0.000257449 0.000271657 0.000255751 0.000257449 0.000249091 0.000266896 0.000257449 0.000241046 0.000239442 0.000257449 0.000249091 0.000239442 0.000238342 0.000264369 0.000252445 0.000208058 0.000205043 0.000252445 0.000246419 0.000205043 0.000205678 0.000208058 0.000205043 0.000148239 0.00015499 0.000205043 0.000205678 0.00015499 0.000163824 0.000137062 0.000142566 5.27372e-05 7.0002e-05 0.000142566 0.000148239 7.0002e-05 8.66473e-05 5.27372e-05 7.0002e-05 -2.92012e-05 -9.94909e-07 7.0002e-05 8.66473e-05 -9.94909e-07 2.60552e-05 0.000148239 0.00015499 8.66473e-05 0.000103553 0.00015499 0.000163824 0.000103553 0.000121116 8.66473e-05 0.000103553 2.60552e-05 5.24931e-05 0.000103553 0.000121116 5.24931e-05 7.86411e-05 0.000246419 0.000243128 0.000205678 0.000209117 0.000243128 0.000241046 0.000209117 0.000213947 0.000205678 0.000209117 0.000163824 0.000174439 0.000209117 0.000213947 0.000174439 0.000186117 0.000241046 0.000239442 0.000213947 0.000219372 0.000239442 0.000238342 0.000219372 0.000225047 0.000213947 0.000219372 0.000186117 0.000198185 0.000219372 0.000225047 0.000198185 0.000210235 0.000163824 0.000174439 0.000121116 0.000139359 0.000174439 0.000186117 0.000139359 0.000157955 0.000121116 0.000139359 7.86411e-05 0.000104533 0.000139359 0.000157955 0.000104533 0.00013001 0.000186117 0.000198185 0.000157955 0.000176489 0.000198185 0.000210235 0.000176489 0.000194613 0.000157955 0.000176489 0.00013001 0.000154829 0.000176489 0.000194613 0.000154829 0.000178744 0.000248117 0.000225005 0.000256211 0.000237302 0.000225005 0.000206346 0.000237302 0.000222049 0.000256211 0.000237302 0.000255751 0.000242507 0.000237302 0.000222049 0.000242507 0.000231897 0.000206346 0.000191699 0.000222049 0.000210122 0.000191699 0.000180715 0.000210122 0.000201228 0.000222049 0.000210122 0.000231897 0.000223794 0.000210122 0.000201228 0.000223794 0.000218035 0.000255751 0.000242507 0.000249091 0.000242215 0.000242507 0.000231897 0.000242215 0.000236985 0.000249091 0.000242215 0.000238342 0.000237937 0.000242215 0.000236985 0.000237937 0.000238366 0.000231897 0.000223794 0.000236985 0.000233424 0.000223794 0.000218035 0.000233424 0.000231478 0.000236985 0.000233424 0.000238366 0.000239693 0.000233424 0.000231478 0.000239693 0.000241907 0.000180715 0.000173044 0.000201228 0.000195075 0.000173044 0.000168258 0.000195075 0.000191351 0.000201228 0.000195075 0.000218035 0.00021443 0.000195075 0.000191351 0.00021443 0.000212754 0.000168258 0.000165814 0.000191351 0.000189704 0.000165814 0.000165173 0.000189704 0.000189638 0.000191351 0.000189704 0.000212754 0.000212702 0.000189704 0.000189638 0.000212702 0.000213771 0.000218035 0.00021443 0.000231478 0.000231037 0.00021443 0.000212754 0.000231037 0.000231927 0.000231478 0.000231037 0.000241907 0.00024494 0.000231037 0.000231927 0.00024494 0.000248646 0.000212754 0.000212702 0.000231927 0.000233866 0.000212702 0.000213771 0.000233866 0.000236337 0.000231927 0.000233866 0.000248646 0.000252766 0.000233866 0.000236337 0.000252766 0.000256849 0.000238342 0.000237937 0.000225047 0.000230906 0.000237937 0.000238366 0.000230906 0.000236965 0.000225047 0.000230906 0.000210235 0.000222054 0.000230906 0.000236965 0.000222054 0.000233542 0.000238366 0.000239693 0.000236965 0.000243239 0.000239693 0.000241907 0.000243239 0.00024971 0.000236965 0.000243239 0.000233542 0.000244641 0.000243239 0.00024971 0.000244641 0.000255294 0.000210235 0.000222054 0.000194613 0.000212077 0.000222054 0.000233542 0.000212077 0.000228715 0.000194613 0.000212077 0.000178744 0.00020153 0.000212077 0.000228715 0.00020153 0.000223002 0.000233542 0.000244641 0.000228715 0.00024441 0.000244641 0.000255294 0.00024441 0.000259064 0.000228715 0.00024441 0.000223002 0.000243007 0.00024441 0.000259064 0.000243007 0.000261411 0.000241907 0.00024494 0.00024971 0.000256314 0.00024494 0.000248646 0.000256314 0.000262922 0.00024971 0.000256314 0.000255294 0.000265423 0.000256314 0.000262922 0.000265423 0.000274909 0.000248646 0.000252766 0.000262922 0.000269312 0.000252766 0.000256849 0.000269312 0.000275139 0.000262922 0.000269312 0.000274909 0.000283584 0.000269312 0.000275139 0.000283584 0.000291217 0.000255294 0.000265423 0.000259064 0.000272577 0.000265423 0.000274909 0.000272577 0.000284843 0.000259064 0.000272577 0.000261411 0.000278102 0.000272577 0.000284843 0.000278102 0.000292992 0.000274909 0.000283584 0.000284843 0.000295752 0.000283584 0.000291217 0.000295752 0.00030519 0.000284843 0.000295752 0.000292992 0.000306028 0.000295752 0.00030519 0.000306028 0.000317212 -2.92012e-05 -9.94909e-07 -0.000107026 -6.86212e-05 -9.94909e-07 2.60552e-05 -6.86212e-05 -3.19821e-05 -0.000107026 -6.86212e-05 -0.000178043 -0.000130878 -6.86212e-05 -3.19821e-05 -0.000130878 -8.57817e-05 2.60552e-05 5.24931e-05 -3.19821e-05 3.34346e-06 5.24931e-05 7.86411e-05 3.34346e-06 3.76125e-05 -3.19821e-05 3.34346e-06 -8.57817e-05 -4.24756e-05 3.34346e-06 3.76125e-05 -4.24756e-05 -7.64133e-07 -0.000178043 -0.000130878 -0.000240653 -0.000186033 -0.000130878 -8.57817e-05 -0.000186033 -0.00013377 -0.000240653 -0.000186033 -0.000293454 -0.000232605 -0.000186033 -0.00013377 -0.000232605 -0.000174509 -8.57817e-05 -4.24756e-05 -0.00013377 -8.3609e-05 -4.24756e-05 -7.64133e-07 -8.3609e-05 -3.53642e-05 -0.00013377 -8.3609e-05 -0.000174509 -0.000118929 -8.3609e-05 -3.53642e-05 -0.000118929 -6.52771e-05 7.86411e-05 0.000104533 3.76125e-05 7.08628e-05 0.000104533 0.00013001 7.08628e-05 0.000102973 3.76125e-05 7.08628e-05 -7.64133e-07 3.93293e-05 7.08628e-05 0.000102973 3.93293e-05 7.76395e-05 0.00013001 0.000154829 0.000102973 0.000133791 0.000154829 0.000178744 0.000133791 0.000163158 0.000102973 0.000133791 7.76395e-05 0.000114011 0.000133791 0.000163158 0.000114011 0.000148391 -7.64133e-07 3.93293e-05 -3.53642e-05 1.09216e-05 3.93293e-05 7.76395e-05 1.09216e-05 5.48225e-05 -3.53642e-05 1.09216e-05 -6.52771e-05 -1.36071e-05 1.09216e-05 5.48225e-05 -1.36071e-05 3.53601e-05 7.76395e-05 0.000114011 5.48225e-05 9.61566e-05 0.000114011 0.000148391 9.61566e-05 0.000134965 5.48225e-05 9.61566e-05 3.53601e-05 8.07591e-05 9.61566e-05 0.000134965 8.07591e-05 0.00012342 -0.000293454 -0.000232605 -0.000335367 -0.000269424 -0.000232605 -0.000174509 -0.000269424 -0.000206633 -0.000335367 -0.000269424 -0.000365849 -0.000295853 -0.000269424 -0.000206633 -0.000295853 -0.00022902 -0.000174509 -0.000118929 -0.000206633 -0.000147292 -0.000118929 -6.52771e-05 -0.000147292 -9.04336e-05 -0.000206633 -0.000147292 -0.00022902 -0.000166393 -0.000147292 -9.04336e-05 -0.000166393 -0.000109756 -6.52771e-05 -1.36071e-05 -9.04336e-05 -3.36835e-05 -1.36071e-05 3.53601e-05 -3.36835e-05 1.93951e-05 -9.04336e-05 -3.36835e-05 -0.000109756 -5.2597e-05 -3.36835e-05 1.93951e-05 -5.2597e-05 7.81101e-06 3.53601e-05 8.07591e-05 1.93951e-05 6.84396e-05 8.07591e-05 0.00012342 6.84396e-05 0.000113997 1.93951e-05 6.84396e-05 7.81101e-06 5.68395e-05 6.84396e-05 0.000113997 5.68395e-05 0.000109644 7.81101e-06 5.68395e-05 -5.94267e-06 6.23325e-05 5.68395e-05 0.000109644 6.23325e-05 0.000112439 -5.94267e-06 6.23325e-05 5.27627e-05 8.08484e-05 6.23325e-05 0.000112439 8.08484e-05 0.000116018 0.000178744 0.00020153 0.000163158 0.000190906 0.00020153 0.000223002 0.000190906 0.000216862 0.000163158 0.000190906 0.000148391 0.000180684 0.000190906 0.000216862 0.000180684 0.000210737 0.000223002 0.000243007 0.000216862 0.00024085 0.000243007 0.000261411 0.00024085 0.000262711 0.000216862 0.00024085 0.000210737 0.000238341 0.00024085 0.000262711 0.000238341 0.000263318 0.000148391 0.000180684 0.000134965 0.000171344 0.000180684 0.000210737 0.000171344 0.000205065 0.000134965 0.000171344 0.00012342 0.00016336 0.000171344 0.000205065 0.00016336 0.000200347 0.000210737 0.000238341 0.000205065 0.000235876 0.000238341 0.000263318 0.000235876 0.000263564 0.000205065 0.000235876 0.000200347 0.00023383 0.000235876 0.000263564 0.00023383 0.000263729 0.000261411 0.000278102 0.000262711 0.000282326 0.000278102 0.000292992 0.000282326 0.000299632 0.000262711 0.000282326 0.000263318 0.000285554 0.000282326 0.000299632 0.000285554 0.000305025 0.000292992 0.000306028 0.000299632 0.000314639 0.000306028 0.000317212 0.000314639 0.000327457 0.000299632 0.000314639 0.000305025 0.000321804 0.000314639 0.000327457 0.000321804 0.000336099 0.000263318 0.000285554 0.000263564 0.000288061 0.000285554 0.000305025 0.000288061 0.000309397 0.000263564 0.000288061 0.000263729 0.000290061 0.000288061 0.000309397 0.000290061 0.000312922 0.000305025 0.000321804 0.000309397 0.000327712 0.000321804 0.000336099 0.000327712 0.00034329 0.000309397 0.000327712 0.000312922 0.000332502 0.000327712 0.00034329 0.000332502 0.00034914 0.00012342 0.00016336 0.000113997 0.000157641 0.00016336 0.000200347 0.000157641 0.0001971 0.000113997 0.000157641 0.000109644 0.000155149 0.000157641 0.0001971 0.000155149 0.000195627 0.000200347 0.00023383 0.0001971 0.000232503 0.00023383 0.000263729 0.000232503 0.000263994 0.0001971 0.000232503 0.000195627 0.000231972 0.000232503 0.000263994 0.000231972 0.000264386 0.000109644 0.000155149 0.000112439 0.000155643 0.000155149 0.000195627 0.000155643 0.000195532 0.000112439 0.000155643 0.000116018 0.000156572 0.000155643 0.000195532 0.000156572 0.00019572 0.000195627 0.000231972 0.000195532 0.00023198 0.000231972 0.000264386 0.00023198 0.000264766 0.000195532 0.00023198 0.00019572 0.000232065 0.00023198 0.000264766 0.000232065 0.000264926 0.000263729 0.000290061 0.000263994 0.00029168 0.000290061 0.000312922 0.00029168 0.000315692 0.000263994 0.00029168 0.000264386 0.000292938 0.00029168 0.000315692 0.000292938 0.000317727 0.000312922 0.000332502 0.000315692 0.000336248 0.000332502 0.00034914 0.000336248 0.00035371 0.000315692 0.000336248 0.000317727 0.000338965 0.000336248 0.00035371 0.000338965 0.00035701 0.000264386 0.000292938 0.000264766 0.000293761 0.000292938 0.000317727 0.000293761 0.000318988 0.000264766 0.000293761 0.000264926 0.000294052 0.000293761 0.000318988 0.000294052 0.000319416 0.000317727 0.000338965 0.000318988 0.000340623 0.000338965 0.00035701 0.000340623 0.000359012 0.000318988 0.000340623 0.000319416 0.000341182 0.000340623 0.000359012 0.000341182 0.000359684 -0.000648714 -0.000602646 -0.000641253 -0.000595425 -0.000602646 -0.000556568 -0.000595425 -0.000549677 -0.000641253 -0.000595425 -0.000618921 -0.00057384 -0.000595425 -0.000549677 -0.00057384 -0.000529102 -0.000556568 -0.000511659 -0.000549677 -0.000505164 -0.000511659 -0.000468725 -0.000505164 -0.000462668 -0.000549677 -0.000505164 -0.000529102 -0.00048579 -0.000505164 -0.000462668 -0.00048579 -0.000444617 -0.000618921 -0.00057384 -0.000581862 -0.000538129 -0.00057384 -0.000529102 -0.000538129 -0.000495144 -0.000581862 -0.000538129 -0.000530348 -0.000488705 -0.000538129 -0.000495144 -0.000488705 -0.000448321 -0.000529102 -0.00048579 -0.000495144 -0.000453879 -0.00048579 -0.000444617 -0.000453879 -0.000414938 -0.000495144 -0.000453879 -0.000448321 -0.000410019 -0.000453879 -0.000414938 -0.000410019 -0.000374258 -0.000530348 -0.000488705 -0.000464799 -0.000426177 -0.000488705 -0.000448321 -0.000426177 -0.000389377 -0.000464799 -0.000426177 -0.000385753 -0.000351221 -0.000426177 -0.000389377 -0.000351221 -0.000319395 -0.000448321 -0.000410019 -0.000389377 -0.000355071 -0.000410019 -0.000374258 -0.000355071 -0.000323482 -0.000389377 -0.000355071 -0.000319395 -0.000290222 -0.000355071 -0.000323482 -0.000290222 -0.000263784 -0.000319395 -0.000290222 -0.000239952 -0.00021686 -0.000290222 -0.000263784 -0.00021686 -0.000196601 -0.000239952 -0.00021686 -0.000152153 -0.000136583 -0.00021686 -0.000196601 -0.000136583 -0.000123591 -0.000152153 -0.000136583 -5.82835e-05 -5.1477e-05 -0.000136583 -0.000123591 -5.1477e-05 -4.67603e-05 -5.82835e-05 -5.1477e-05 3.90923e-05 3.60586e-05 -5.1477e-05 -4.67603e-05 3.60586e-05 3.14373e-05 -0.000468725 -0.000428247 -0.000462668 -0.00042265 -0.000428247 -0.000390476 -0.00042265 -0.000385342 -0.000462668 -0.00042265 -0.000444617 -0.000405981 -0.00042265 -0.000385342 -0.000405981 -0.000370065 -0.000390476 -0.000355517 -0.000385342 -0.000350838 -0.000355517 -0.000323355 -0.000350838 -0.000319107 -0.000385342 -0.000350838 -0.000370065 -0.000336919 -0.000350838 -0.000319107 -0.000336919 -0.000306475 -0.000444617 -0.000405981 -0.000414938 -0.000378617 -0.000405981 -0.000370065 -0.000378617 -0.000345013 -0.000414938 -0.000378617 -0.000374258 -0.000341192 -0.000378617 -0.000345013 -0.000341192 -0.000310811 -0.000370065 -0.000336919 -0.000345013 -0.000314113 -0.000336919 -0.000306475 -0.000314113 -0.00028579 -0.000345013 -0.000314113 -0.000310811 -0.00028301 -0.000314113 -0.00028579 -0.00028301 -0.000257607 -0.000323355 -0.000293855 -0.000319107 -0.000290011 -0.000293855 -0.000266871 -0.000290011 -0.000263398 -0.000319107 -0.000290011 -0.000306475 -0.000278582 -0.000290011 -0.000263398 -0.000278582 -0.00025307 -0.000266871 -0.000242225 -0.000263398 -0.000239085 -0.000242225 -0.000219729 -0.000239085 -0.000216884 -0.000263398 -0.000239085 -0.00025307 -0.000229749 -0.000239085 -0.000216884 -0.000229749 -0.000208426 -0.000306475 -0.000278582 -0.00028579 -0.000259872 -0.000278582 -0.00025307 -0.000259872 -0.000236166 -0.00028579 -0.000259872 -0.000257607 -0.000234395 -0.000259872 -0.000236166 -0.000234395 -0.000213155 -0.00025307 -0.000229749 -0.000236166 -0.000214469 -0.000229749 -0.000208426 -0.000214469 -0.000194582 -0.000236166 -0.000214469 -0.000213155 -0.000193668 -0.000214469 -0.000194582 -0.000193668 -0.000175734 -0.000374258 -0.000341192 -0.000323482 -0.000294607 -0.000341192 -0.000310811 -0.000294607 -0.000268334 -0.000323482 -0.000294607 -0.000263784 -0.000240033 -0.000294607 -0.000268334 -0.000240033 -0.000218702 -0.000310811 -0.00028301 -0.000268334 -0.000244445 -0.00028301 -0.000257607 -0.000244445 -0.000222706 -0.000268334 -0.000244445 -0.000218702 -0.000199486 -0.000244445 -0.000222706 -0.000199486 -0.00018209 -0.000263784 -0.000240033 -0.000196601 -0.000178869 -0.000240033 -0.000218702 -0.000178869 -0.000163281 -0.000196601 -0.000178869 -0.000123591 -0.000112783 -0.000178869 -0.000163281 -0.000112783 -0.000103697 -0.000218702 -0.000199486 -0.000163281 -0.00014944 -0.000199486 -0.00018209 -0.00014944 -0.000136979 -0.000163281 -0.00014944 -0.000103697 -9.58409e-05 -0.00014944 -0.000136979 -9.58409e-05 -8.87868e-05 -0.000257607 -0.000234395 -0.000222706 -0.000202871 -0.000234395 -0.000213155 -0.000202871 -0.000184693 -0.000222706 -0.000202871 -0.00018209 -0.000166225 -0.000202871 -0.000184693 -0.000166225 -0.000151625 -0.000213155 -0.000193668 -0.000184693 -0.000167944 -0.000193668 -0.000175734 -0.000167944 -0.000152423 -0.000184693 -0.000167944 -0.000151625 -0.000138062 -0.000167944 -0.000152423 -0.000138062 -0.000125344 -0.00018209 -0.000166225 -0.000136979 -0.000125577 -0.000166225 -0.000151625 -0.000125577 -0.000114969 -0.000136979 -0.000125577 -8.87868e-05 -8.22181e-05 -0.000125577 -0.000114969 -8.22181e-05 -7.58935e-05 -0.000151625 -0.000138062 -0.000114969 -0.000104943 -0.000138062 -0.000125344 -0.000104943 -9.53314e-05 -0.000114969 -0.000104943 -7.58935e-05 -6.96413e-05 -0.000104943 -9.53314e-05 -6.96413e-05 -6.33382e-05 -0.000219729 -0.000199192 -0.000216884 -0.000196605 -0.000199192 -0.000180421 -0.000196605 -0.000178055 -0.000216884 -0.000196605 -0.000208426 -0.000188912 -0.000196605 -0.000178055 -0.000188912 -0.000171018 -0.000180421 -0.000163211 -0.000178055 -0.000161033 -0.000163211 -0.000147335 -0.000161033 -0.000145316 -0.000178055 -0.000161033 -0.000171018 -0.000154554 -0.000161033 -0.000145316 -0.000154554 -0.00013931 -0.000208426 -0.000188912 -0.000194582 -0.000176317 -0.000188912 -0.000171018 -0.000176317 -0.000159498 -0.000194582 -0.000176317 -0.000175734 -0.000159169 -0.000176317 -0.000159498 -0.000159169 -0.000143809 -0.000171018 -0.000154554 -0.000159498 -0.000143946 -0.000154554 -0.00013931 -0.000143946 -0.000129475 -0.000159498 -0.000143946 -0.000143809 -0.000129499 -0.000143946 -0.000129475 -0.000129499 -0.000116079 -0.000147335 -0.000132517 -0.000145316 -0.000130634 -0.000132517 -0.000118407 -0.000130634 -0.000116645 -0.000145316 -0.000130634 -0.00013931 -0.000125033 -0.000130634 -0.000116645 -0.000125033 -0.000111401 -0.000118407 -0.00010455 -0.000116645 -0.0001029 -0.00010455 -9.03553e-05 -0.0001029 -8.88193e-05 -0.000116645 -0.0001029 -0.000111401 -9.79911e-05 -0.0001029 -8.88193e-05 -9.79911e-05 -8.42502e-05 -0.00013931 -0.000125033 -0.000129475 -0.00011586 -0.000125033 -0.000111401 -0.00011586 -0.000102811 -0.000129475 -0.00011586 -0.000116079 -0.000103363 -0.00011586 -0.000102811 -0.000103363 -9.11081e-05 -0.000111401 -9.79911e-05 -0.000102811 -8.99492e-05 -9.79911e-05 -8.42502e-05 -8.99492e-05 -7.67675e-05 -0.000102811 -8.99492e-05 -9.11081e-05 -7.89919e-05 -8.99492e-05 -7.67675e-05 -7.89919e-05 -6.65774e-05 -0.000175734 -0.000159169 -0.000152423 -0.000137958 -0.000159169 -0.000143809 -0.000137958 -0.000124402 -0.000152423 -0.000137958 -0.000125344 -0.000113317 -0.000137958 -0.000124402 -0.000113317 -0.000101857 -0.000143809 -0.000129499 -0.000124402 -0.000111627 -0.000129499 -0.000116079 -0.000111627 -9.9508e-05 -0.000124402 -0.000111627 -0.000101857 -9.08687e-05 -0.000111627 -9.9508e-05 -9.08687e-05 -8.02652e-05 -0.000125344 -0.000113317 -9.53314e-05 -8.60063e-05 -0.000113317 -0.000101857 -8.60063e-05 -7.68766e-05 -9.53314e-05 -8.60063e-05 -6.33382e-05 -5.68981e-05 -8.60063e-05 -7.68766e-05 -5.68981e-05 -5.02647e-05 -0.000101857 -9.08687e-05 -7.68766e-05 -6.78786e-05 -9.08687e-05 -8.02652e-05 -6.78786e-05 -5.89669e-05 -7.68766e-05 -6.78786e-05 -5.02647e-05 -4.34083e-05 -6.78786e-05 -5.89669e-05 -4.34083e-05 -3.63235e-05 -0.000116079 -0.000103363 -9.9508e-05 -8.79031e-05 -0.000103363 -9.11081e-05 -8.79031e-05 -7.66295e-05 -9.9508e-05 -8.79031e-05 -8.02652e-05 -6.99556e-05 -8.79031e-05 -7.66295e-05 -6.99556e-05 -5.98241e-05 -9.11081e-05 -7.89919e-05 -7.66295e-05 -6.54372e-05 -7.89919e-05 -6.65774e-05 -6.54372e-05 -5.398e-05 -7.66295e-05 -6.54372e-05 -5.98241e-05 -4.97081e-05 -6.54372e-05 -5.398e-05 -4.97081e-05 -3.93731e-05 -8.02652e-05 -6.99556e-05 -5.89669e-05 -5.01042e-05 -6.99556e-05 -5.98241e-05 -5.01042e-05 -4.12468e-05 -5.89669e-05 -5.01042e-05 -3.63235e-05 -2.90252e-05 -5.01042e-05 -4.12468e-05 -2.90252e-05 -2.1543e-05 -5.98241e-05 -4.97081e-05 -4.12468e-05 -3.23298e-05 -4.97081e-05 -3.93731e-05 -3.23298e-05 -2.32485e-05 -4.12468e-05 -3.23298e-05 -2.1543e-05 -1.39145e-05 -3.23298e-05 -2.32485e-05 -1.39145e-05 -6.17738e-06 -0.000123591 -0.000112783 -4.67603e-05 -4.37403e-05 -0.000112783 -0.000103697 -4.37403e-05 -4.183