# vtk DataFile Version 3.0
#This file was generated by the deal.II library on 2022/11/17 at 22:29:13
ASCII
DATASET UNSTRUCTURED_GRID

POINTS 4096 double
0 0.5 0
0.03125 0.5 0
0 0.53125 0
0.03125 0.53125 0
0.03125 0.5 0
0.0625 0.5 0
0.03125 0.53125 0
0.0625 0.53125 0
0 0.53125 0
0.03125 0.53125 0
0 0.5625 0
0.03125 0.5625 0
0.03125 0.53125 0
0.0625 0.53125 0
0.03125 0.5625 0
0.0625 0.5625 0
0.0625 0.5 0
0.09375 0.5 0
0.0625 0.53125 0
0.09375 0.53125 0
0.09375 0.5 0
0.125 0.5 0
0.09375 0.53125 0
0.125 0.53125 0
0.0625 0.53125 0
0.09375 0.53125 0
0.0625 0.5625 0
0.09375 0.5625 0
0.09375 0.53125 0
0.125 0.53125 0
0.09375 0.5625 0
0.125 0.5625 0
0 0.5625 0
0.03125 0.5625 0
0 0.59375 0
0.03125 0.59375 0
0.03125 0.5625 0
0.0625 0.5625 0
0.03125 0.59375 0
0.0625 0.59375 0
0 0.59375 0
0.03125 0.59375 0
0 0.625 0
0.03125 0.625 0
0.03125 0.59375 0
0.0625 0.59375 0
0.03125 0.625 0
0.0625 0.625 0
0.0625 0.5625 0
0.09375 0.5625 0
0.0625 0.59375 0
0.09375 0.59375 0
0.09375 0.5625 0
0.125 0.5625 0
0.09375 0.59375 0
0.125 0.59375 0
0.0625 0.59375 0
0.09375 0.59375 0
0.0625 0.625 0
0.09375 0.625 0
0.09375 0.59375 0
0.125 0.59375 0
0.09375 0.625 0
0.125 0.625 0
0.125 0.5 0
0.15625 0.5 0
0.125 0.53125 0
0.15625 0.53125 0
0.15625 0.5 0
0.1875 0.5 0
0.15625 0.53125 0
0.1875 0.53125 0
0.125 0.53125 0
0.15625 0.53125 0
0.125 0.5625 0
0.15625 0.5625 0
0.15625 0.53125 0
0.1875 0.53125 0
0.15625 0.5625 0
0.1875 0.5625 0
0.1875 0.5 0
0.21875 0.5 0
0.1875 0.53125 0
0.21875 0.53125 0
0.21875 0.5 0
0.25 0.5 0
0.21875 0.53125 0
0.25 0.53125 0
0.1875 0.53125 0
0.21875 0.53125 0
0.1875 0.5625 0
0.21875 0.5625 0
0.21875 0.53125 0
0.25 0.53125 0
0.21875 0.5625 0
0.25 0.5625 0
0.125 0.5625 0
0.15625 0.5625 0
0.125 0.59375 0
0.15625 0.59375 0
0.15625 0.5625 0
0.1875 0.5625 0
0.15625 0.59375 0
0.1875 0.59375 0
0.125 0.59375 0
0.15625 0.59375 0
0.125 0.625 0
0.15625 0.625 0
0.15625 0.59375 0
0.1875 0.59375 0
0.15625 0.625 0
0.1875 0.625 0
0.1875 0.5625 0
0.21875 0.5625 0
0.1875 0.59375 0
0.21875 0.59375 0
0.21875 0.5625 0
0.25 0.5625 0
0.21875 0.59375 0
0.25 0.59375 0
0.1875 0.59375 0
0.21875 0.59375 0
0.1875 0.625 0
0.21875 0.625 0
0.21875 0.59375 0
0.25 0.59375 0
0.21875 0.625 0
0.25 0.625 0
0 0.625 0
0.03125 0.625 0
0 0.65625 0
0.03125 0.65625 0
0.03125 0.625 0
0.0625 0.625 0
0.03125 0.65625 0
0.0625 0.65625 0
0 0.65625 0
0.03125 0.65625 0
0 0.6875 0
0.03125 0.6875 0
0.03125 0.65625 0
0.0625 0.65625 0
0.03125 0.6875 0
0.0625 0.6875 0
0.0625 0.625 0
0.09375 0.625 0
0.0625 0.65625 0
0.09375 0.65625 0
0.09375 0.625 0
0.125 0.625 0
0.09375 0.65625 0
0.125 0.65625 0
0.0625 0.65625 0
0.09375 0.65625 0
0.0625 0.6875 0
0.09375 0.6875 0
0.09375 0.65625 0
0.125 0.65625 0
0.09375 0.6875 0
0.125 0.6875 0
0 0.6875 0
0.03125 0.6875 0
0 0.71875 0
0.03125 0.71875 0
0.03125 0.6875 0
0.0625 0.6875 0
0.03125 0.71875 0
0.0625 0.71875 0
0 0.71875 0
0.03125 0.71875 0
0 0.75 0
0.03125 0.75 0
0.03125 0.71875 0
0.0625 0.71875 0
0.03125 0.75 0
0.0625 0.75 0
0.0625 0.6875 0
0.09375 0.6875 0
0.0625 0.71875 0
0.09375 0.71875 0
0.09375 0.6875 0
0.125 0.6875 0
0.09375 0.71875 0
0.125 0.71875 0
0.0625 0.71875 0
0.09375 0.71875 0
0.0625 0.75 0
0.09375 0.75 0
0.09375 0.71875 0
0.125 0.71875 0
0.09375 0.75 0
0.125 0.75 0
0.125 0.625 0
0.15625 0.625 0
0.125 0.65625 0
0.15625 0.65625 0
0.15625 0.625 0
0.1875 0.625 0
0.15625 0.65625 0
0.1875 0.65625 0
0.125 0.65625 0
0.15625 0.65625 0
0.125 0.6875 0
0.15625 0.6875 0
0.15625 0.65625 0
0.1875 0.65625 0
0.15625 0.6875 0
0.1875 0.6875 0
0.1875 0.625 0
0.21875 0.625 0
0.1875 0.65625 0
0.21875 0.65625 0
0.21875 0.625 0
0.25 0.625 0
0.21875 0.65625 0
0.25 0.65625 0
0.1875 0.65625 0
0.21875 0.65625 0
0.1875 0.6875 0
0.21875 0.6875 0
0.21875 0.65625 0
0.25 0.65625 0
0.21875 0.6875 0
0.25 0.6875 0
0.125 0.6875 0
0.15625 0.6875 0
0.125 0.71875 0
0.15625 0.71875 0
0.15625 0.6875 0
0.1875 0.6875 0
0.15625 0.71875 0
0.1875 0.71875 0
0.125 0.71875 0
0.15625 0.71875 0
0.125 0.75 0
0.15625 0.75 0
0.15625 0.71875 0
0.1875 0.71875 0
0.15625 0.75 0
0.1875 0.75 0
0.1875 0.6875 0
0.21875 0.6875 0
0.1875 0.71875 0
0.21875 0.71875 0
0.21875 0.6875 0
0.25 0.6875 0
0.21875 0.71875 0
0.25 0.71875 0
0.1875 0.71875 0
0.21875 0.71875 0
0.1875 0.75 0
0.21875 0.75 0
0.21875 0.71875 0
0.25 0.71875 0
0.21875 0.75 0
0.25 0.75 0
0.25 0.5 0
0.28125 0.5 0
0.25 0.53125 0
0.28125 0.53125 0
0.28125 0.5 0
0.3125 0.5 0
0.28125 0.53125 0
0.3125 0.53125 0
0.25 0.53125 0
0.28125 0.53125 0
0.25 0.5625 0
0.28125 0.5625 0
0.28125 0.53125 0
0.3125 0.53125 0
0.28125 0.5625 0
0.3125 0.5625 0
0.3125 0.5 0
0.34375 0.5 0
0.3125 0.53125 0
0.34375 0.53125 0
0.34375 0.5 0
0.375 0.5 0
0.34375 0.53125 0
0.375 0.53125 0
0.3125 0.53125 0
0.34375 0.53125 0
0.3125 0.5625 0
0.34375 0.5625 0
0.34375 0.53125 0
0.375 0.53125 0
0.34375 0.5625 0
0.375 0.5625 0
0.25 0.5625 0
0.28125 0.5625 0
0.25 0.59375 0
0.28125 0.59375 0
0.28125 0.5625 0
0.3125 0.5625 0
0.28125 0.59375 0
0.3125 0.59375 0
0.25 0.59375 0
0.28125 0.59375 0
0.25 0.625 0
0.28125 0.625 0
0.28125 0.59375 0
0.3125 0.59375 0
0.28125 0.625 0
0.3125 0.625 0
0.3125 0.5625 0
0.34375 0.5625 0
0.3125 0.59375 0
0.34375 0.59375 0
0.34375 0.5625 0
0.375 0.5625 0
0.34375 0.59375 0
0.375 0.59375 0
0.3125 0.59375 0
0.34375 0.59375 0
0.3125 0.625 0
0.34375 0.625 0
0.34375 0.59375 0
0.375 0.59375 0
0.34375 0.625 0
0.375 0.625 0
0.375 0.5 0
0.40625 0.5 0
0.375 0.53125 0
0.40625 0.53125 0
0.40625 0.5 0
0.4375 0.5 0
0.40625 0.53125 0
0.4375 0.53125 0
0.375 0.53125 0
0.40625 0.53125 0
0.375 0.5625 0
0.40625 0.5625 0
0.40625 0.53125 0
0.4375 0.53125 0
0.40625 0.5625 0
0.4375 0.5625 0
0.4375 0.5 0
0.46875 0.5 0
0.4375 0.53125 0
0.46875 0.53125 0
0.46875 0.5 0
0.5 0.5 0
0.46875 0.53125 0
0.5 0.53125 0
0.4375 0.53125 0
0.46875 0.53125 0
0.4375 0.5625 0
0.46875 0.5625 0
0.46875 0.53125 0
0.5 0.53125 0
0.46875 0.5625 0
0.5 0.5625 0
0.375 0.5625 0
0.40625 0.5625 0
0.375 0.59375 0
0.40625 0.59375 0
0.40625 0.5625 0
0.4375 0.5625 0
0.40625 0.59375 0
0.4375 0.59375 0
0.375 0.59375 0
0.40625 0.59375 0
0.375 0.625 0
0.40625 0.625 0
0.40625 0.59375 0
0.4375 0.59375 0
0.40625 0.625 0
0.4375 0.625 0
0.4375 0.5625 0
0.46875 0.5625 0
0.4375 0.59375 0
0.46875 0.59375 0
0.46875 0.5625 0
0.5 0.5625 0
0.46875 0.59375 0
0.5 0.59375 0
0.4375 0.59375 0
0.46875 0.59375 0
0.4375 0.625 0
0.46875 0.625 0
0.46875 0.59375 0
0.5 0.59375 0
0.46875 0.625 0
0.5 0.625 0
0.25 0.625 0
0.28125 0.625 0
0.25 0.65625 0
0.28125 0.65625 0
0.28125 0.625 0
0.3125 0.625 0
0.28125 0.65625 0
0.3125 0.65625 0
0.25 0.65625 0
0.28125 0.65625 0
0.25 0.6875 0
0.28125 0.6875 0
0.28125 0.65625 0
0.3125 0.65625 0
0.28125 0.6875 0
0.3125 0.6875 0
0.3125 0.625 0
0.34375 0.625 0
0.3125 0.65625 0
0.34375 0.65625 0
0.34375 0.625 0
0.375 0.625 0
0.34375 0.65625 0
0.375 0.65625 0
0.3125 0.65625 0
0.34375 0.65625 0
0.3125 0.6875 0
0.34375 0.6875 0
0.34375 0.65625 0
0.375 0.65625 0
0.34375 0.6875 0
0.375 0.6875 0
0.25 0.6875 0
0.28125 0.6875 0
0.25 0.71875 0
0.28125 0.71875 0
0.28125 0.6875 0
0.3125 0.6875 0
0.28125 0.71875 0
0.3125 0.71875 0
0.25 0.71875 0
0.28125 0.71875 0
0.25 0.75 0
0.28125 0.75 0
0.28125 0.71875 0
0.3125 0.71875 0
0.28125 0.75 0
0.3125 0.75 0
0.3125 0.6875 0
0.34375 0.6875 0
0.3125 0.71875 0
0.34375 0.71875 0
0.34375 0.6875 0
0.375 0.6875 0
0.34375 0.71875 0
0.375 0.71875 0
0.3125 0.71875 0
0.34375 0.71875 0
0.3125 0.75 0
0.34375 0.75 0
0.34375 0.71875 0
0.375 0.71875 0
0.34375 0.75 0
0.375 0.75 0
0.375 0.625 0
0.40625 0.625 0
0.375 0.65625 0
0.40625 0.65625 0
0.40625 0.625 0
0.4375 0.625 0
0.40625 0.65625 0
0.4375 0.65625 0
0.375 0.65625 0
0.40625 0.65625 0
0.375 0.6875 0
0.40625 0.6875 0
0.40625 0.65625 0
0.4375 0.65625 0
0.40625 0.6875 0
0.4375 0.6875 0
0.4375 0.625 0
0.46875 0.625 0
0.4375 0.65625 0
0.46875 0.65625 0
0.46875 0.625 0
0.5 0.625 0
0.46875 0.65625 0
0.5 0.65625 0
0.4375 0.65625 0
0.46875 0.65625 0
0.4375 0.6875 0
0.46875 0.6875 0
0.46875 0.65625 0
0.5 0.65625 0
0.46875 0.6875 0
0.5 0.6875 0
0.375 0.6875 0
0.40625 0.6875 0
0.375 0.71875 0
0.40625 0.71875 0
0.40625 0.6875 0
0.4375 0.6875 0
0.40625 0.71875 0
0.4375 0.71875 0
0.375 0.71875 0
0.40625 0.71875 0
0.375 0.75 0
0.40625 0.75 0
0.40625 0.71875 0
0.4375 0.71875 0
0.40625 0.75 0
0.4375 0.75 0
0.4375 0.6875 0
0.46875 0.6875 0
0.4375 0.71875 0
0.46875 0.71875 0
0.46875 0.6875 0
0.5 0.6875 0
0.46875 0.71875 0
0.5 0.71875 0
0.4375 0.71875 0
0.46875 0.71875 0
0.4375 0.75 0
0.46875 0.75 0
0.46875 0.71875 0
0.5 0.71875 0
0.46875 0.75 0
0.5 0.75 0
0 0.75 0
0.03125 0.75 0
0 0.78125 0
0.03125 0.78125 0
0.03125 0.75 0
0.0625 0.75 0
0.03125 0.78125 0
0.0625 0.78125 0
0 0.78125 0
0.03125 0.78125 0
0 0.8125 0
0.03125 0.8125 0
0.03125 0.78125 0
0.0625 0.78125 0
0.03125 0.8125 0
0.0625 0.8125 0
0.0625 0.75 0
0.09375 0.75 0
0.0625 0.78125 0
0.09375 0.78125 0
0.09375 0.75 0
0.125 0.75 0
0.09375 0.78125 0
0.125 0.78125 0
0.0625 0.78125 0
0.09375 0.78125 0
0.0625 0.8125 0
0.09375 0.8125 0
0.09375 0.78125 0
0.125 0.78125 0
0.09375 0.8125 0
0.125 0.8125 0
0 0.8125 0
0.03125 0.8125 0
0 0.84375 0
0.03125 0.84375 0
0.03125 0.8125 0
0.0625 0.8125 0
0.03125 0.84375 0
0.0625 0.84375 0
0 0.84375 0
0.03125 0.84375 0
0 0.875 0
0.03125 0.875 0
0.03125 0.84375 0
0.0625 0.84375 0
0.03125 0.875 0
0.0625 0.875 0
0.0625 0.8125 0
0.09375 0.8125 0
0.0625 0.84375 0
0.09375 0.84375 0
0.09375 0.8125 0
0.125 0.8125 0
0.09375 0.84375 0
0.125 0.84375 0
0.0625 0.84375 0
0.09375 0.84375 0
0.0625 0.875 0
0.09375 0.875 0
0.09375 0.84375 0
0.125 0.84375 0
0.09375 0.875 0
0.125 0.875 0
0.125 0.75 0
0.15625 0.75 0
0.125 0.78125 0
0.15625 0.78125 0
0.15625 0.75 0
0.1875 0.75 0
0.15625 0.78125 0
0.1875 0.78125 0
0.125 0.78125 0
0.15625 0.78125 0
0.125 0.8125 0
0.15625 0.8125 0
0.15625 0.78125 0
0.1875 0.78125 0
0.15625 0.8125 0
0.1875 0.8125 0
0.1875 0.75 0
0.21875 0.75 0
0.1875 0.78125 0
0.21875 0.78125 0
0.21875 0.75 0
0.25 0.75 0
0.21875 0.78125 0
0.25 0.78125 0
0.1875 0.78125 0
0.21875 0.78125 0
0.1875 0.8125 0
0.21875 0.8125 0
0.21875 0.78125 0
0.25 0.78125 0
0.21875 0.8125 0
0.25 0.8125 0
0.125 0.8125 0
0.15625 0.8125 0
0.125 0.84375 0
0.15625 0.84375 0
0.15625 0.8125 0
[...]
POINT_DATA 4096
SCALARS x_dis double 1
LOOKUP_TABLE default
1.9806e-07 1.2549e-07 3.2766e-07 2.08118e-07 1.2549e-07 8.86679e-08 2.08118e-07 1.46828e-07 3.2766e-07 2.08118e-07 5.39086e-07 3.43442e-07 2.08118e-07 1.46828e-07 3.43442e-07 2.42e-07 8.86679e-08 6.79801e-08 1.46828e-07 1.12141e-07 6.79801e-08 5.45359e-08 1.12141e-07 8.95159e-08 1.46828e-07 1.12141e-07 2.42e-07 1.84128e-07 1.12141e-07 8.95159e-08 1.84128e-07 1.46205e-07 5.39086e-07 3.43442e-07 8.81528e-07 5.63694e-07 3.43442e-07 2.42e-07 5.63694e-07 3.96866e-07 8.81528e-07 5.63694e-07 1.43169e-06 9.19724e-07 5.63694e-07 3.96866e-07 9.19724e-07 6.47362e-07 2.42e-07 1.84128e-07 3.96866e-07 3.00834e-07 1.84128e-07 1.46205e-07 3.00834e-07 2.37542e-07 3.96866e-07 3.00834e-07 6.47362e-07 4.88954e-07 3.00834e-07 2.37542e-07 4.88954e-07 3.83775e-07 5.45359e-08 4.44598e-08 8.95159e-08 7.25582e-08 4.44598e-08 3.61501e-08 7.25582e-08 5.86213e-08 8.95159e-08 7.25582e-08 1.46205e-07 1.17754e-07 7.25582e-08 5.86213e-08 1.17754e-07 9.44362e-08 3.61501e-08 2.89903e-08 5.86213e-08 4.66969e-08 2.89903e-08 2.27542e-08 4.66969e-08 3.64265e-08 5.86213e-08 4.66969e-08 9.44362e-08 7.46149e-08 4.66969e-08 3.64265e-08 7.46149e-08 5.77216e-08 1.46205e-07 1.17754e-07 2.37542e-07 1.89963e-07 1.17754e-07 9.44362e-08 1.89963e-07 1.51056e-07 2.37542e-07 1.89963e-07 3.83775e-07 3.04452e-07 1.89963e-07 1.51056e-07 3.04452e-07 2.39726e-07 9.44362e-08 7.46149e-08 1.51056e-07 1.18206e-07 7.46149e-08 5.77216e-08 1.18206e-07 9.05139e-08 1.51056e-07 1.18206e-07 2.39726e-07 1.85487e-07 1.18206e-07 9.05139e-08 1.85487e-07 1.40321e-07 1.43169e-06 9.19724e-07 2.30743e-06 1.49092e-06 9.19724e-07 6.47362e-07 1.49092e-06 1.04996e-06 2.30743e-06 1.49092e-06 3.68686e-06 2.39968e-06 1.49092e-06 1.04996e-06 2.39968e-06 1.69259e-06 6.47362e-07 4.88954e-07 1.04996e-06 7.90322e-07 4.88954e-07 3.83775e-07 7.90322e-07 6.16252e-07 1.04996e-06 7.90322e-07 1.69259e-06 1.26983e-06 7.90322e-07 6.16252e-07 1.26983e-06 9.82773e-07 3.68686e-06 2.39968e-06 5.83352e-06 3.83225e-06 2.39968e-06 1.69259e-06 3.83225e-06 2.71044e-06 5.83352e-06 3.83225e-06 9.12727e-06 6.06694e-06 3.83225e-06 2.71044e-06 6.06694e-06 4.30806e-06 1.69259e-06 1.26983e-06 2.71044e-06 2.02659e-06 1.26983e-06 9.82773e-07 2.02659e-06 1.55464e-06 2.71044e-06 2.02659e-06 4.30806e-06 3.20815e-06 2.02659e-06 1.55464e-06 3.20815e-06 2.43392e-06 3.83775e-07 3.04452e-07 6.16252e-07 4.84373e-07 3.04452e-07 2.39726e-07 4.84373e-07 3.77032e-07 6.16252e-07 4.84373e-07 9.82773e-07 7.64071e-07 4.84373e-07 3.77032e-07 7.64071e-07 5.86693e-07 2.39726e-07 1.85487e-07 3.77032e-07 2.87894e-07 1.85487e-07 1.40321e-07 2.87894e-07 2.14725e-07 3.77032e-07 2.87894e-07 5.86693e-07 4.41108e-07 2.87894e-07 2.14725e-07 4.41108e-07 3.23648e-07 9.82773e-07 7.64071e-07 1.55464e-06 1.19279e-06 7.64071e-07 5.86693e-07 1.19279e-06 9.01123e-07 1.55464e-06 1.19279e-06 2.43392e-06 1.8375e-06 1.19279e-06 9.01123e-07 1.8375e-06 1.36163e-06 5.86693e-07 4.41108e-07 9.01123e-07 6.65415e-07 4.41108e-07 3.23648e-07 6.65415e-07 4.79185e-07 9.01123e-07 6.65415e-07 1.36163e-06 9.84833e-07 6.65415e-07 4.79185e-07 9.84833e-07 6.94532e-07 2.27542e-08 1.73369e-08 3.64265e-08 2.76501e-08 1.73369e-08 1.26402e-08 2.76501e-08 2.02115e-08 3.64265e-08 2.76501e-08 5.77216e-08 4.34985e-08 2.76501e-08 2.02115e-08 4.34985e-08 3.16741e-08 1.26402e-08 8.54277e-09 2.02115e-08 1.38849e-08 8.54277e-09 4.94051e-09 1.38849e-08 8.35921e-09 2.02115e-08 1.38849e-08 3.16741e-08 2.18273e-08 1.38849e-08 8.35921e-09 2.18273e-08 1.32815e-08 5.77216e-08 4.34985e-08 9.05139e-08 6.75541e-08 4.34985e-08 3.16741e-08 6.75541e-08 4.8854e-08 9.05139e-08 6.75541e-08 1.40321e-07 1.03491e-07 6.75541e-08 4.8854e-08 1.03491e-07 7.41413e-08 3.16741e-08 2.18273e-08 4.8854e-08 3.37095e-08 2.18273e-08 1.32815e-08 3.37095e-08 2.10929e-08 4.8854e-08 3.37095e-08 7.41413e-08 5.10962e-08 3.37095e-08 2.10929e-08 5.10962e-08 3.28813e-08 4.94051e-09 1.99799e-09 8.35921e-09 3.17355e-09 1.99799e-09 7.87632e-10 3.17355e-09 -2.53098e-09 8.35921e-09 3.17355e-09 1.32815e-08 4.83612e-09 3.17355e-09 -2.53098e-09 4.83612e-09 -6.20262e-09 7.87632e-10 8.82156e-09 -2.53098e-09 -1.47952e-08 8.82156e-09 3.02374e-08 -1.47952e-08 -6.14965e-08 -2.53098e-09 -1.47952e-08 -6.20262e-09 -2.638e-08 -1.47952e-08 -6.14965e-08 -2.638e-08 -4.72296e-08 1.32815e-08 4.83612e-09 2.10929e-08 9.50271e-09 4.83612e-09 -6.20262e-09 9.50271e-09 -3.27793e-09 2.10929e-08 9.50271e-09 3.28813e-08 1.78097e-08 9.50271e-09 -3.27793e-09 1.78097e-08 4.5271e-09 -6.20262e-09 -2.638e-08 -3.27793e-09 -1.73537e-08 -2.638e-08 -4.72296e-08 -1.73537e-08 -2.97404e-08 -3.27793e-09 -1.73537e-08 4.5271e-09 -7.47627e-09 -1.73537e-08 -2.97404e-08 -7.47627e-09 -1.73594e-08 1.40321e-07 1.03491e-07 2.14725e-07 1.56149e-07 1.03491e-07 7.41413e-08 1.56149e-07 1.10512e-07 2.14725e-07 1.56149e-07 3.23648e-07 2.31548e-07 1.56149e-07 1.10512e-07 2.31548e-07 1.61462e-07 7.41413e-08 5.10962e-08 1.10512e-07 7.57223e-08 5.10962e-08 3.28813e-08 7.57223e-08 4.94388e-08 1.10512e-07 7.57223e-08 1.61462e-07 1.09477e-07 7.57223e-08 4.94388e-08 1.09477e-07 7.15552e-08 3.23648e-07 2.31548e-07 4.79185e-07 3.36576e-07 2.31548e-07 1.61462e-07 3.36576e-07 2.30734e-07 4.79185e-07 3.36576e-07 6.94532e-07 4.78094e-07 3.36576e-07 2.30734e-07 4.78094e-07 3.21692e-07 1.61462e-07 1.09477e-07 2.30734e-07 1.54262e-07 1.09477e-07 7.15552e-08 1.54262e-07 1.00055e-07 2.30734e-07 1.54262e-07 3.21692e-07 2.11613e-07 1.54262e-07 1.00055e-07 2.11613e-07 1.35586e-07 3.28813e-08 1.78097e-08 4.94388e-08 2.93796e-08 1.78097e-08 4.5271e-09 2.93796e-08 1.36116e-08 4.94388e-08 2.93796e-08 7.15552e-08 4.39639e-08 2.93796e-08 1.36116e-08 4.39639e-08 2.35397e-08 4.5271e-09 -7.47627e-09 1.36116e-08 8.12413e-10 -7.47627e-09 -1.73594e-08 8.12413e-10 -9.83795e-09 1.36116e-08 8.12413e-10 2.35397e-08 7.74144e-09 8.12413e-10 -9.83795e-09 7.74144e-09 -5.49799e-09 7.15552e-08 4.39639e-08 1.00055e-07 6.18804e-08 4.39639e-08 2.35397e-08 6.18804e-08 3.46013e-08 1.00055e-07 6.18804e-08 1.35586e-07 8.34405e-08 6.18804e-08 3.46013e-08 8.34405e-08 4.71433e-08 2.35397e-08 7.74144e-09 3.46013e-08 1.409e-08 7.74144e-09 -5.49799e-09 1.409e-08 -3.05473e-09 3.46013e-08 1.409e-08 4.71433e-08 2.04406e-08 1.409e-08 -3.05473e-09 2.04406e-08 -1.69387e-09 9.12727e-06 6.06694e-06 1.40946e-05 9.50831e-06 6.06694e-06 4.30806e-06 9.50831e-06 6.78463e-06 1.40946e-05 9.50831e-06 2.1419e-05 1.47134e-05 9.50831e-06 6.78463e-06 1.47134e-05 1.0551e-05 4.30806e-06 3.20815e-06 6.78463e-06 5.02442e-06 3.20815e-06 2.43392e-06 5.02442e-06 3.75829e-06 6.78463e-06 5.02442e-06 1.0551e-05 7.74868e-06 5.02442e-06 3.75829e-06 7.74868e-06 5.69113e-06 2.1419e-05 1.47134e-05 3.18759e-05 2.23652e-05 1.47134e-05 1.0551e-05 2.23652e-05 1.60946e-05 3.18759e-05 2.23652e-05 4.60636e-05 3.30725e-05 2.23652e-05 1.60946e-05 3.30725e-05 2.3807e-05 1.0551e-05 7.74868e-06 1.60946e-05 1.1674e-05 7.74868e-06 5.69113e-06 1.1674e-05 8.38149e-06 1.60946e-05 1.1674e-05 2.3807e-05 1.69759e-05 1.1674e-05 8.38149e-06 1.69759e-05 1.18698e-05 2.43392e-06 1.8375e-06 3.75829e-06 2.78157e-06 1.8375e-06 1.36163e-06 2.78157e-06 2.0151e-06 3.75829e-06 2.78157e-06 5.69113e-06 4.11308e-06 2.78157e-06 2.0151e-06 4.11308e-06 2.90381e-06 1.36163e-06 9.84833e-07 2.0151e-06 1.42378e-06 9.84833e-07 6.94532e-07 1.42378e-06 9.81434e-07 2.0151e-06 1.42378e-06 2.90381e-06 1.99992e-06 1.42378e-06 9.81434e-07 1.99992e-06 1.34577e-06 5.69113e-06 4.11308e-06 8.38149e-06 5.8938e-06 4.11308e-06 2.90381e-06 5.8938e-06 4.04554e-06 8.38149e-06 5.8938e-06 1.18698e-05 8.10385e-06 5.8938e-06 4.04554e-06 8.10385e-06 5.40453e-06 2.90381e-06 1.99992e-06 4.04554e-06 2.71279e-06 1.99992e-06 1.34577e-06 2.71279e-06 1.78155e-06 4.04554e-06 2.71279e-06 5.40453e-06 3.52993e-06 2.71279e-06 1.78155e-06 3.52993e-06 2.2649e-06 4.60636e-05 3.30725e-05 6.37038e-05 4.67847e-05 3.30725e-05 2.3807e-05 4.67847e-05 3.35524e-05 6.37038e-05 4.67847e-05 8.24277e-05 6.17498e-05 4.67847e-05 3.35524e-05 6.17498e-05 4.40313e-05 2.3807e-05 1.69759e-05 3.35524e-05 2.34428e-05 1.69759e-05 1.18698e-05 2.34428e-05 1.59421e-05 3.35524e-05 2.34428e-05 4.40313e-05 3.01563e-05 2.34428e-05 1.59421e-05 3.01563e-05 1.99981e-05 8.24277e-05 6.17498e-05 9.71758e-05 7.39321e-05 6.17498e-05 4.40313e-05 7.39321e-05 5.25061e-05 9.71758e-05 7.39321e-05 0.000102763 7.86828e-05 7.39321e-05 5.25061e-05 7.86828e-05 5.58147e-05 4.40313e-05 3.01563e-05 5.25061e-05 3.54375e-05 3.01563e-05 1.99981e-05 3.54375e-05 2.30859e-05 5.25061e-05 3.54375e-05 5.58147e-05 3.74687e-05 3.54375e-05 2.30859e-05 3.74687e-05 2.4252e-05 1.18698e-05 8.10385e-06 1.59421e-05 1.05726e-05 8.10385e-06 5.40453e-06 1.05726e-05 6.86262e-06 1.59421e-05 1.05726e-05 1.99981e-05 1.29355e-05 1.05726e-05 6.86262e-06 1.29355e-05 8.21021e-06 5.40453e-06 3.52993e-06 6.86262e-06 4.37643e-06 3.52993e-06 2.2649e-06 4.37643e-06 2.75086e-06 6.86262e-06 4.37643e-06 8.21021e-06 5.13592e-06 4.37643e-06 2.75086e-06 5.13592e-06 3.17622e-06 1.99981e-05 1.29355e-05 2.30859e-05 1.46805e-05 1.29355e-05 8.21021e-06 1.46805e-05 9.17998e-06 2.30859e-05 1.46805e-05 2.4252e-05 1.53288e-05 1.46805e-05 9.17998e-06 1.53288e-05 9.53527e-06 8.21021e-06 5.13592e-06 9.17998e-06 5.67085e-06 5.13592e-06 3.17622e-06 5.67085e-06 3.47054e-06 9.17998e-06 5.67085e-06 9.53527e-06 5.86463e-06 5.67085e-06 3.47054e-06 5.86463e-06 3.57617e-06 6.94532e-07 4.78094e-07 9.81434e-07 6.6125e-07 4.78094e-07 3.21692e-07 6.6125e-07 4.36305e-07 9.81434e-07 6.6125e-07 1.34577e-06 8.86963e-07 6.6125e-07 4.36305e-07 8.86963e-07 5.73798e-07 3.21692e-07 2.11613e-07 4.36305e-07 2.82104e-07 2.11613e-07 1.35586e-07 2.82104e-07 1.78211e-07 4.36305e-07 2.82104e-07 5.73798e-07 3.64647e-07 2.82104e-07 1.78211e-07 3.64647e-07 2.27028e-07 1.34577e-06 8.86963e-07 1.78155e-06 1.14899e-06 8.86963e-07 5.73798e-07 1.14899e-06 7.29287e-07 1.78155e-06 1.14899e-06 2.2649e-06 1.43148e-06 1.14899e-06 7.29287e-07 1.43148e-06 8.92891e-07 5.73798e-07 3.64647e-07 7.29287e-07 4.55879e-07 3.64647e-07 2.27028e-07 4.55879e-07 2.79901e-07 7.29287e-07 4.55879e-07 8.92891e-07 5.49884e-07 4.55879e-07 2.79901e-07 5.49884e-07 3.33407e-07 1.35586e-07 8.34405e-08 1.78211e-07 1.08621e-07 8.34405e-08 4.71433e-08 1.08621e-07 6.12622e-08 1.78211e-07 1.08621e-07 2.27028e-07 1.3684e-07 1.08621e-07 6.12622e-08 1.3684e-07 7.67011e-08 4.71433e-08 2.04406e-08 6.12622e-08 2.7091e-08 2.04406e-08 -1.69387e-09 2.7091e-08 -9.39281e-10 6.12622e-08 2.7091e-08 7.67011e-08 3.40717e-08 2.7091e-08 -9.39281e-10 3.40717e-08 -5.21403e-10 2.27028e-07 1.3684e-07 2.79901e-07 1.66848e-07 1.3684e-07 7.67011e-08 1.66848e-07 9.28262e-08 2.79901e-07 1.66848e-07 3.33407e-07 1.96741e-07 1.66848e-07 9.28262e-08 1.96741e-07 1.08666e-07 7.67011e-08 3.40717e-08 9.28262e-08 4.11883e-08 3.40717e-08 -5.21403e-10 4.11883e-08 -2.90028e-10 9.28262e-08 4.11883e-08 1.08666e-07 4.80722e-08 4.11883e-08 -2.90028e-10 4.80722e-08 -1.62054e-10 2.2649e-06 1.43148e-06 2.75086e-06 1.70841e-06 1.43148e-06 8.92891e-07 1.70841e-06 1.04988e-06 2.75086e-06 1.70841e-06 3.17622e-06 1.94585e-06 1.70841e-06 1.04988e-06 1.94585e-06 1.18217e-06 8.92891e-07 5.49884e-07 1.04988e-06 6.38465e-07 5.49884e-07 3.33407e-07 6.38465e-07 3.83052e-07 1.04988e-06 6.38465e-07 1.18217e-06 7.12032e-07 6.38465e-07 3.83052e-07 7.12032e-07 4.23778e-07 3.17622e-06 1.94585e-06 3.47054e-06 2.10776e-06 1.94585e-06 1.18217e-06 2.10776e-06 1.27129e-06 3.47054e-06 2.10776e-06 3.57617e-06 2.16543e-06 2.10776e-06 1.27129e-06 2.16543e-06 1.30283e-06 1.18217e-06 7.12032e-07 1.27129e-06 7.61086e-07 7.12032e-07 4.23778e-07 7.61086e-07 4.50701e-07 1.27129e-06 7.61086e-07 1.30283e-06 7.78357e-07 7.61086e-07 4.50701e-07 7.78357e-07 4.60139e-07 3.33407e-07 1.96741e-07 3.83052e-07 2.24116e-07 1.96741e-07 1.08666e-07 2.24116e-07 1.23012e-07 3.83052e-07 2.24116e-07 4.23778e-07 2.46342e-07 2.24116e-07 1.23012e-07 2.46342e-07 1.34562e-07 1.08666e-07 4.80722e-08 1.23012e-07 5.4242e-08 4.80722e-08 -1.62054e-10 5.4242e-08 -9.17092e-11 1.23012e-07 5.4242e-08 1.34562e-07 5.91736e-08 5.4242e-08 -9.17092e-11 5.91736e-08 -5.39932e-11 4.23778e-07 2.46342e-07 4.50701e-07 2.60929e-07 2.46342e-07 1.34562e-07 2.60929e-07 1.42098e-07 4.50701e-07 2.60929e-07 4.60139e-07 2.66024e-07 2.60929e-07 1.42098e-07 2.66024e-07 1.44722e-07 1.34562e-07 5.91736e-08 1.42098e-07 6.23766e-08 5.91736e-08 -5.39932e-11 6.23766e-08 -3.56106e-11 1.42098e-07 6.23766e-08 1.44722e-07 6.34894e-08 6.23766e-08 -3.56106e-11 6.34894e-08 -3.01232e-11 3.02374e-08 2.96582e-08 -6.14965e-08 -6.84213e-08 2.96582e-08 5.12062e-09 -6.84213e-08 -2.90209e-08 -6.14965e-08 -6.84213e-08 -4.72296e-08 -5.23529e-08 -6.84213e-08 -2.90209e-08 -5.23529e-08 -4.02673e-08 5.12062e-09 -1.04442e-08 -2.90209e-08 -1.83169e-08 -1.04442e-08 -1.74537e-08 -1.83169e-08 -1.73863e-08 -2.90209e-08 -1.83169e-08 -4.02673e-08 -2.69605e-08 -1.83169e-08 -1.73863e-08 -2.69605e-08 -2.38572e-08 -4.72296e-08 -5.23529e-08 -2.97404e-08 -3.51148e-08 -5.23529e-08 -4.02673e-08 -3.51148e-08 -3.34532e-08 -2.97404e-08 -3.51148e-08 -1.73594e-08 -2.42078e-08 -3.51148e-08 -3.34532e-08 -2.42078e-08 -2.87641e-08 -4.02673e-08 -2.69605e-08 -3.34532e-08 -3.07839e-08 -2.69605e-08 -2.38572e-08 -3.07839e-08 -3.1891e-08 -3.34532e-08 -3.07839e-08 -2.87641e-08 -3.36646e-08 -3.07839e-08 -3.1891e-08 -3.36646e-08 -4.19428e-08 -1.74537e-08 -2.30797e-08 -1.73863e-08 -2.03492e-08 -2.30797e-08 -2.95617e-08 -2.03492e-08 -2.55405e-08 -1.73863e-08 -2.03492e-08 -2.38572e-08 -2.68686e-08 -2.03492e-08 -2.55405e-08 -2.68686e-08 -3.38454e-08 -2.95617e-08 -3.76855e-08 -2.55405e-08 -3.25617e-08 -3.76855e-08 -4.75175e-08 -3.25617e-08 -4.1258e-08 -2.55405e-08 -3.25617e-08 -3.38454e-08 -4.3904e-08 -3.25617e-08 -4.1258e-08 -4.3904e-08 -5.67563e-08 -2.38572e-08 -2.68686e-08 -3.1891e-08 -3.86726e-08 -2.68686e-08 -3.38454e-08 -3.86726e-08 -5.05335e-08 -3.1891e-08 -3.86726e-08 -4.19428e-08 -5.55917e-08 -3.86726e-08 -5.05335e-08 -5.55917e-08 -7.58062e-08 -3.38454e-08 -4.3904e-08 -5.05335e-08 -6.71825e-08 -4.3904e-08 -5.67563e-08 -6.71825e-08 -8.85995e-08 -5.05335e-08 -6.71825e-08 -7.58062e-08 -1.03326e-07 -6.71825e-08 -8.85995e-08 -1.03326e-07 -1.38818e-07 -1.73594e-08 -2.42078e-08 -9.83795e-09 -1.91197e-08 -2.42078e-08 -2.87641e-08 -1.91197e-08 -2.84166e-08 -9.83795e-09 -1.91197e-08 -5.49799e-09 -1.81076e-08 -1.91197e-08 -2.84166e-08 -1.81076e-08 -3.22395e-08 -2.87641e-08 -3.36646e-08 -2.84166e-08 -3.98772e-08 -3.36646e-08 -4.19428e-08 -3.98772e-08 -5.60139e-08 -2.84166e-08 -3.98772e-08 -3.22395e-08 -5.04896e-08 -3.98772e-08 -5.60139e-08 -5.04896e-08 -7.59348e-08 -5.49799e-09 -1.81076e-08 -3.05473e-09 -1.99021e-08 -1.81076e-08 -3.22395e-08 -1.99021e-08 -3.96094e-08 -3.05473e-09 -1.99021e-08 -1.69387e-09 -2.36851e-08 -1.99021e-08 -3.96094e-08 -2.36851e-08 -4.99938e-08 -3.22395e-08 -5.04896e-08 -3.96094e-08 -6.57938e-08 -5.04896e-08 -7.59348e-08 -6.57938e-08 -1.02822e-07 -3.96094e-08 -6.57938e-08 -4.99938e-08 -8.57372e-08 -6.57938e-08 -1.02822e-07 -8.57372e-08 -1.37276e-07 -4.19428e-08 -5.55917e-08 -5.60139e-08 -7.93112e-08 -5.55917e-08 -7.58062e-08 -7.93112e-08 -1.12034e-07 -5.60139e-08 -7.93112e-08 -7.59348e-08 -1.12065e-07 -7.93112e-08 -1.12034e-07 -1.12065e-07 -1.62698e-07 -7.58062e-08 -1.03326e-07 -1.12034e-07 -1.56261e-07 -1.03326e-07 -1.38818e-07 -1.56261e-07 -2.13807e-07 -1.12034e-07 -1.56261e-07 -1.62698e-07 -2.318e-07 -1.56261e-07 -2.13807e-07 -2.318e-07 -3.23167e-07 -7.59348e-08 -1.12065e-07 -1.02822e-07 -1.56004e-07 -1.12065e-07 -1.62698e-07 -1.56004e-07 -2.31646e-07 -1.02822e-07 -1.56004e-07 -1.37276e-07 -2.12732e-07 -1.56004e-07 -2.31646e-07 -2.12732e-07 -3.22322e-07 -1.62698e-07 -2.318e-07 -2.31646e-07 -3.36849e-07 -2.318e-07 -3.23167e-07 -3.36849e-07 -4.78966e-07 -2.31646e-07 -3.36849e-07 -3.22322e-07 -4.78328e-07 -3.36849e-07 -4.78966e-07 -4.78328e-07 -6.94451e-07 -4.75175e-08 -5.87685e-08 -4.1258e-08 -5.14476e-08 -5.87685e-08 -7.07972e-08 -5.14476e-08 -6.28744e-08 -4.1258e-08 -5.14476e-08 -5.67563e-08 -7.22875e-08 -5.14476e-08 -6.28744e-08 -7.22875e-08 -9.04755e-08 -7.07972e-08 -8.2498e-08 -6.28744e-08 -7.53024e-08 -8.2498e-08 -9.21408e-08 -7.53024e-08 -8.88592e-08 -6.28744e-08 -7.53024e-08 -9.04755e-08 -1.11616e-07 -7.53024e-08 -8.88592e-08 -1.11616e-07 -1.36998e-07 -5.67563e-08 -7.22875e-08 -8.85995e-08 -1.14875e-07 -7.22875e-08 -9.04755e-08 -1.14875e-07 -1.46212e-07 -8.85995e-08 -1.14875e-07 -1.38818e-07 -1.82833e-07 -1.14875e-07 -1.46212e-07 -1.82833e-07 -2.35935e-07 -9.04755e-08 -1.11616e-07 -1.46212e-07 -1.83349e-07 -1.11616e-07 -1.36998e-07 -1.83349e-07 -2.2871e-07 -1.46212e-07 -1.83349e-07 -2.35935e-07 -2.99418e-07 -1.83349e-07 -2.2871e-07 -2.99418e-07 -3.77271e-07 -9.21408e-08 -9.73878e-08 -8.88592e-08 -1.04897e-07 -9.73878e-08 -9.63138e-08 -1.04897e-07 -1.27738e-07 -8.88592e-08 -1.04897e-07 -1.36998e-07 -1.70344e-07 -1.04897e-07 -1.27738e-07 -1.70344e-07 -2.20595e-07 -9.63138e-08 -9.26296e-08 -1.27738e-07 -1.66961e-07 -9.26296e-08 -1.09333e-07 -1.66961e-07 -2.42348e-07 -1.27738e-07 -1.66961e-07 -2.20595e-07 -3.07773e-07 -1.66961e-07 -2.42348e-07 -3.07773e-07 -4.79722e-07 -1.36998e-07 -1.70344e-07 -2.2871e-07 -2.88938e-07 -1.70344e-07 -2.20595e-07 -2.88938e-07 -3.80139e-07 -2.2871e-07 -2.88938e-07 -3.77271e-07 -4.80524e-07 -2.88938e-07 -3.80139e-07 -4.80524e-07 -6.36157e-07 -2.20595e-07 -3.07773e-07 -3.80139e-07 -5.39045e-07 -3.07773e-07 -4.79722e-07 -5.39045e-07 -8.42759e-07 -3.80139e-07 -5.39045e-07 -6.36157e-07 -9.0403e-07 -5.39045e-07 -8.42759e-07 -9.0403e-07 -1.40765e-06 -1.38818e-07 -1.82833e-07 -2.13807e-07 -2.86127e-07 -1.82833e-07 -2.35935e-07 -2.86127e-07 -3.74472e-07 -2.13807e-07 -2.86127e-07 -3.23167e-07 -4.40034e-07 -2.86127e-07 -3.74472e-07 -4.40034e-07 -5.85089e-07 -2.35935e-07 -2.99418e-07 -3.74472e-07 -4.80994e-07 -2.99418e-07 -3.77271e-07 -4.80994e-07 -6.11952e-07 -3.74472e-07 -4.80994e-07 -5.85089e-07 -7.61947e-07 -4.80994e-07 -6.11952e-07 -7.61947e-07 -9.80094e-07 -3.23167e-07 -4.40034e-07 -4.78966e-07 -6.648e-07 -4.40034e-07 -5.85089e-07 -6.648e-07 -9.00164e-07 -4.78966e-07 -6.648e-07 -6.94451e-07 -9.84496e-07 -6.648e-07 -9.00164e-07 -9.84496e-07 -1.36108e-06 -5.85089e-07 -7.61947e-07 -9.00164e-07 -1.19151e-06 -7.61947e-07 -9.80094e-07 -1.19151e-06 -1.55303e-06 -9.00164e-07 -1.19151e-06 -1.36108e-06 -1.83674e-06 -1.19151e-06 -1.55303e-06 -1.83674e-06 -2.43297e-06 -3.77271e-07 -4.80524e-07 -6.11952e-07 -7.84888e-07 -4.80524e-07 -6.36157e-07 -7.84888e-07 -1.04296e-06 -6.11952e-07 -7.84888e-07 -9.80094e-07 -1.2665e-06 -7.84888e-07 -1.04296e-06 -1.2665e-06 -1.68838e-06 -6.36157e-07 -9.0403e-07 -1.04296e-06 -1.48137e-06 -9.0403e-07 -1.40765e-06 -1.48137e-06 -2.2929e-06 -1.04296e-06 -1.48137e-06 -1.68838e-06 -2.39401e-06 -1.48137e-06 -2.2929e-06 -2.39401e-06 -3.6782e-06 -9.80094e-07 -1.2665e-06 -1.55303e-06 -2.02461e-06 -1.2665e-06 -1.68838e-06 -2.02461e-06 -2.70796e-06 -1.55303e-06 -2.02461e-06 -2.43297e-06 -3.20699e-06 -2.02461e-06 -2.70796e-06 -3.20699e-06 -4.30662e-06 -1.68838e-06 -2.39401e-06 -2.70796e-06 -3.82892e-06 -2.39401e-06 -3.6782e-06 -3.82892e-06 -5.8284e-06 -2.70796e-06 -3.82892e-06 -4.30662e-06 -6.065e-06 -3.82892e-06 -5.8284e-06 -6.065e-06 -9.12427e-06 -1.69387e-09 -2.36851e-08 -9.39281e-10 -2.88992e-08 -2.36851e-08 -4.99938e-08 -2.88992e-08 -6.28745e-08 -9.39281e-10 -2.88992e-08 -5.21403e-10 -3.50793e-08 -2.88992e-08 -6.28745e-08 -3.50793e-08 -7.761e-08 -4.99938e-08 -8.57372e-08 -6.28745e-08 -1.09951e-07 -8.57372e-08 -1.37276e-07 -1.09951e-07 -1.79221e-07 -6.28745e-08 -1.09951e-07 -7.761e-08 -1.37604e-07 -1.09951e-07 -1.79221e-07 -1.37604e-07 -2.27623e-07 -5.21403e-10 -3.50793e-08 -2.90028e-10 -4.17505e-08 -3.50793e-08 -7.761e-08 -4.17505e-08 -9.33381e-08 -2.90028e-10 -4.17505e-08 -1.62054e-10 -4.83871e-08 -4.17505e-08 -9.33381e-08 -4.83871e-08 -1.08955e-07 -7.761e-08 -1.37604e-07 -9.33381e-08 -1.67284e-07 -1.37604e-07 -2.27623e-07 -1.67284e-07 -2.80249e-07 -9.33381e-08 -1.67284e-07 -1.08955e-07 -1.9699e-07 -1.67284e-07 -2.80249e-07 -1.9699e-07 -3.33609e-07 -1.37276e-07 -2.12732e-07 -1.79221e-07 -2.828e-07 -2.12732e-07 -3.22322e-07 -2.828e-07 -4.3672e-07 -1.79221e-07 -2.828e-07 -2.27623e-07 -3.6507e-07 -2.828e-07 -4.3672e-07 -3.6507e-07 -5.74063e-07 -3.22322e-07 -4.78328e-07 -4.3672e-07 -6.61428e-07 -4.78328e-07 -