# vtk DataFile Version 3.0
#This file was generated by the deal.II library on 2022/11/17 at 0:09:13
ASCII
DATASET UNSTRUCTURED_GRID

POINTS 4096 double
0 0.5 0
0.03125 0.5 0
0 0.53125 0
0.03125 0.53125 0
0.03125 0.5 0
0.0625 0.5 0
0.03125 0.53125 0
0.0625 0.53125 0
0 0.53125 0
0.03125 0.53125 0
0 0.5625 0
0.03125 0.5625 0
0.03125 0.53125 0
0.0625 0.53125 0
0.03125 0.5625 0
0.0625 0.5625 0
0.0625 0.5 0
0.09375 0.5 0
0.0625 0.53125 0
0.09375 0.53125 0
0.09375 0.5 0
0.125 0.5 0
0.09375 0.53125 0
0.125 0.53125 0
0.0625 0.53125 0
0.09375 0.53125 0
0.0625 0.5625 0
0.09375 0.5625 0
0.09375 0.53125 0
0.125 0.53125 0
0.09375 0.5625 0
0.125 0.5625 0
0 0.5625 0
0.03125 0.5625 0
0 0.59375 0
0.03125 0.59375 0
0.03125 0.5625 0
0.0625 0.5625 0
0.03125 0.59375 0
0.0625 0.59375 0
0 0.59375 0
0.03125 0.59375 0
0 0.625 0
0.03125 0.625 0
0.03125 0.59375 0
0.0625 0.59375 0
0.03125 0.625 0
0.0625 0.625 0
0.0625 0.5625 0
0.09375 0.5625 0
0.0625 0.59375 0
0.09375 0.59375 0
0.09375 0.5625 0
0.125 0.5625 0
0.09375 0.59375 0
0.125 0.59375 0
0.0625 0.59375 0
0.09375 0.59375 0
0.0625 0.625 0
0.09375 0.625 0
0.09375 0.59375 0
0.125 0.59375 0
0.09375 0.625 0
0.125 0.625 0
0.125 0.5 0
0.15625 0.5 0
0.125 0.53125 0
0.15625 0.53125 0
0.15625 0.5 0
0.1875 0.5 0
0.15625 0.53125 0
0.1875 0.53125 0
0.125 0.53125 0
0.15625 0.53125 0
0.125 0.5625 0
0.15625 0.5625 0
0.15625 0.53125 0
0.1875 0.53125 0
0.15625 0.5625 0
0.1875 0.5625 0
0.1875 0.5 0
0.21875 0.5 0
0.1875 0.53125 0
0.21875 0.53125 0
0.21875 0.5 0
0.25 0.5 0
0.21875 0.53125 0
0.25 0.53125 0
0.1875 0.53125 0
0.21875 0.53125 0
0.1875 0.5625 0
0.21875 0.5625 0
0.21875 0.53125 0
0.25 0.53125 0
0.21875 0.5625 0
0.25 0.5625 0
0.125 0.5625 0
0.15625 0.5625 0
0.125 0.59375 0
0.15625 0.59375 0
0.15625 0.5625 0
0.1875 0.5625 0
0.15625 0.59375 0
0.1875 0.59375 0
0.125 0.59375 0
0.15625 0.59375 0
0.125 0.625 0
0.15625 0.625 0
0.15625 0.59375 0
0.1875 0.59375 0
0.15625 0.625 0
0.1875 0.625 0
0.1875 0.5625 0
0.21875 0.5625 0
0.1875 0.59375 0
0.21875 0.59375 0
0.21875 0.5625 0
0.25 0.5625 0
0.21875 0.59375 0
0.25 0.59375 0
0.1875 0.59375 0
0.21875 0.59375 0
0.1875 0.625 0
0.21875 0.625 0
0.21875 0.59375 0
0.25 0.59375 0
0.21875 0.625 0
0.25 0.625 0
0 0.625 0
0.03125 0.625 0
0 0.65625 0
0.03125 0.65625 0
0.03125 0.625 0
0.0625 0.625 0
0.03125 0.65625 0
0.0625 0.65625 0
0 0.65625 0
0.03125 0.65625 0
0 0.6875 0
0.03125 0.6875 0
0.03125 0.65625 0
0.0625 0.65625 0
0.03125 0.6875 0
0.0625 0.6875 0
0.0625 0.625 0
0.09375 0.625 0
0.0625 0.65625 0
0.09375 0.65625 0
0.09375 0.625 0
0.125 0.625 0
0.09375 0.65625 0
0.125 0.65625 0
0.0625 0.65625 0
0.09375 0.65625 0
0.0625 0.6875 0
0.09375 0.6875 0
0.09375 0.65625 0
0.125 0.65625 0
0.09375 0.6875 0
0.125 0.6875 0
0 0.6875 0
0.03125 0.6875 0
0 0.71875 0
0.03125 0.71875 0
0.03125 0.6875 0
0.0625 0.6875 0
0.03125 0.71875 0
0.0625 0.71875 0
0 0.71875 0
0.03125 0.71875 0
0 0.75 0
0.03125 0.75 0
0.03125 0.71875 0
0.0625 0.71875 0
0.03125 0.75 0
0.0625 0.75 0
0.0625 0.6875 0
0.09375 0.6875 0
0.0625 0.71875 0
0.09375 0.71875 0
0.09375 0.6875 0
0.125 0.6875 0
0.09375 0.71875 0
0.125 0.71875 0
0.0625 0.71875 0
0.09375 0.71875 0
0.0625 0.75 0
0.09375 0.75 0
0.09375 0.71875 0
0.125 0.71875 0
0.09375 0.75 0
0.125 0.75 0
0.125 0.625 0
0.15625 0.625 0
0.125 0.65625 0
0.15625 0.65625 0
0.15625 0.625 0
0.1875 0.625 0
0.15625 0.65625 0
0.1875 0.65625 0
0.125 0.65625 0
0.15625 0.65625 0
0.125 0.6875 0
0.15625 0.6875 0
0.15625 0.65625 0
0.1875 0.65625 0
0.15625 0.6875 0
0.1875 0.6875 0
0.1875 0.625 0
0.21875 0.625 0
0.1875 0.65625 0
0.21875 0.65625 0
0.21875 0.625 0
0.25 0.625 0
0.21875 0.65625 0
0.25 0.65625 0
0.1875 0.65625 0
0.21875 0.65625 0
0.1875 0.6875 0
0.21875 0.6875 0
0.21875 0.65625 0
0.25 0.65625 0
0.21875 0.6875 0
0.25 0.6875 0
0.125 0.6875 0
0.15625 0.6875 0
0.125 0.71875 0
0.15625 0.71875 0
0.15625 0.6875 0
0.1875 0.6875 0
0.15625 0.71875 0
0.1875 0.71875 0
0.125 0.71875 0
0.15625 0.71875 0
0.125 0.75 0
0.15625 0.75 0
0.15625 0.71875 0
0.1875 0.71875 0
0.15625 0.75 0
0.1875 0.75 0
0.1875 0.6875 0
0.21875 0.6875 0
0.1875 0.71875 0
0.21875 0.71875 0
0.21875 0.6875 0
0.25 0.6875 0
0.21875 0.71875 0
0.25 0.71875 0
0.1875 0.71875 0
0.21875 0.71875 0
0.1875 0.75 0
0.21875 0.75 0
0.21875 0.71875 0
0.25 0.71875 0
0.21875 0.75 0
0.25 0.75 0
0.25 0.5 0
0.28125 0.5 0
0.25 0.53125 0
0.28125 0.53125 0
0.28125 0.5 0
0.3125 0.5 0
0.28125 0.53125 0
0.3125 0.53125 0
0.25 0.53125 0
0.28125 0.53125 0
0.25 0.5625 0
0.28125 0.5625 0
0.28125 0.53125 0
0.3125 0.53125 0
0.28125 0.5625 0
0.3125 0.5625 0
0.3125 0.5 0
0.34375 0.5 0
0.3125 0.53125 0
0.34375 0.53125 0
0.34375 0.5 0
0.375 0.5 0
0.34375 0.53125 0
0.375 0.53125 0
0.3125 0.53125 0
0.34375 0.53125 0
0.3125 0.5625 0
0.34375 0.5625 0
0.34375 0.53125 0
0.375 0.53125 0
0.34375 0.5625 0
0.375 0.5625 0
0.25 0.5625 0
0.28125 0.5625 0
0.25 0.59375 0
0.28125 0.59375 0
0.28125 0.5625 0
0.3125 0.5625 0
0.28125 0.59375 0
0.3125 0.59375 0
0.25 0.59375 0
0.28125 0.59375 0
0.25 0.625 0
0.28125 0.625 0
0.28125 0.59375 0
0.3125 0.59375 0
0.28125 0.625 0
0.3125 0.625 0
0.3125 0.5625 0
0.34375 0.5625 0
0.3125 0.59375 0
0.34375 0.59375 0
0.34375 0.5625 0
0.375 0.5625 0
0.34375 0.59375 0
0.375 0.59375 0
0.3125 0.59375 0
0.34375 0.59375 0
0.3125 0.625 0
0.34375 0.625 0
0.34375 0.59375 0
0.375 0.59375 0
0.34375 0.625 0
0.375 0.625 0
0.375 0.5 0
0.40625 0.5 0
0.375 0.53125 0
0.40625 0.53125 0
0.40625 0.5 0
0.4375 0.5 0
0.40625 0.53125 0
0.4375 0.53125 0
0.375 0.53125 0
0.40625 0.53125 0
0.375 0.5625 0
0.40625 0.5625 0
0.40625 0.53125 0
0.4375 0.53125 0
0.40625 0.5625 0
0.4375 0.5625 0
0.4375 0.5 0
0.46875 0.5 0
0.4375 0.53125 0
0.46875 0.53125 0
0.46875 0.5 0
0.5 0.5 0
0.46875 0.53125 0
0.5 0.53125 0
0.4375 0.53125 0
0.46875 0.53125 0
0.4375 0.5625 0
0.46875 0.5625 0
0.46875 0.53125 0
0.5 0.53125 0
0.46875 0.5625 0
0.5 0.5625 0
0.375 0.5625 0
0.40625 0.5625 0
0.375 0.59375 0
0.40625 0.59375 0
0.40625 0.5625 0
0.4375 0.5625 0
0.40625 0.59375 0
0.4375 0.59375 0
0.375 0.59375 0
0.40625 0.59375 0
0.375 0.625 0
0.40625 0.625 0
0.40625 0.59375 0
0.4375 0.59375 0
0.40625 0.625 0
0.4375 0.625 0
0.4375 0.5625 0
0.46875 0.5625 0
0.4375 0.59375 0
0.46875 0.59375 0
0.46875 0.5625 0
0.5 0.5625 0
0.46875 0.59375 0
0.5 0.59375 0
0.4375 0.59375 0
0.46875 0.59375 0
0.4375 0.625 0
0.46875 0.625 0
0.46875 0.59375 0
0.5 0.59375 0
0.46875 0.625 0
0.5 0.625 0
0.25 0.625 0
0.28125 0.625 0
0.25 0.65625 0
0.28125 0.65625 0
0.28125 0.625 0
0.3125 0.625 0
0.28125 0.65625 0
0.3125 0.65625 0
0.25 0.65625 0
0.28125 0.65625 0
0.25 0.6875 0
0.28125 0.6875 0
0.28125 0.65625 0
0.3125 0.65625 0
0.28125 0.6875 0
0.3125 0.6875 0
0.3125 0.625 0
0.34375 0.625 0
0.3125 0.65625 0
0.34375 0.65625 0
0.34375 0.625 0
0.375 0.625 0
0.34375 0.65625 0
0.375 0.65625 0
0.3125 0.65625 0
0.34375 0.65625 0
0.3125 0.6875 0
0.34375 0.6875 0
0.34375 0.65625 0
0.375 0.65625 0
0.34375 0.6875 0
0.375 0.6875 0
0.25 0.6875 0
0.28125 0.6875 0
0.25 0.71875 0
0.28125 0.71875 0
0.28125 0.6875 0
0.3125 0.6875 0
0.28125 0.71875 0
0.3125 0.71875 0
0.25 0.71875 0
0.28125 0.71875 0
0.25 0.75 0
0.28125 0.75 0
0.28125 0.71875 0
0.3125 0.71875 0
0.28125 0.75 0
0.3125 0.75 0
0.3125 0.6875 0
0.34375 0.6875 0
0.3125 0.71875 0
0.34375 0.71875 0
0.34375 0.6875 0
0.375 0.6875 0
0.34375 0.71875 0
0.375 0.71875 0
0.3125 0.71875 0
0.34375 0.71875 0
0.3125 0.75 0
0.34375 0.75 0
0.34375 0.71875 0
0.375 0.71875 0
0.34375 0.75 0
0.375 0.75 0
0.375 0.625 0
0.40625 0.625 0
0.375 0.65625 0
0.40625 0.65625 0
0.40625 0.625 0
0.4375 0.625 0
0.40625 0.65625 0
0.4375 0.65625 0
0.375 0.65625 0
0.40625 0.65625 0
0.375 0.6875 0
0.40625 0.6875 0
0.40625 0.65625 0
0.4375 0.65625 0
0.40625 0.6875 0
0.4375 0.6875 0
0.4375 0.625 0
0.46875 0.625 0
0.4375 0.65625 0
0.46875 0.65625 0
0.46875 0.625 0
0.5 0.625 0
0.46875 0.65625 0
0.5 0.65625 0
0.4375 0.65625 0
0.46875 0.65625 0
0.4375 0.6875 0
0.46875 0.6875 0
0.46875 0.65625 0
0.5 0.65625 0
0.46875 0.6875 0
0.5 0.6875 0
0.375 0.6875 0
0.40625 0.6875 0
0.375 0.71875 0
0.40625 0.71875 0
0.40625 0.6875 0
0.4375 0.6875 0
0.40625 0.71875 0
0.4375 0.71875 0
0.375 0.71875 0
0.40625 0.71875 0
0.375 0.75 0
0.40625 0.75 0
0.40625 0.71875 0
0.4375 0.71875 0
0.40625 0.75 0
0.4375 0.75 0
0.4375 0.6875 0
0.46875 0.6875 0
0.4375 0.71875 0
0.46875 0.71875 0
0.46875 0.6875 0
0.5 0.6875 0
0.46875 0.71875 0
0.5 0.71875 0
0.4375 0.71875 0
0.46875 0.71875 0
0.4375 0.75 0
0.46875 0.75 0
0.46875 0.71875 0
0.5 0.71875 0
0.46875 0.75 0
0.5 0.75 0
0 0.75 0
0.03125 0.75 0
0 0.78125 0
0.03125 0.78125 0
0.03125 0.75 0
0.0625 0.75 0
0.03125 0.78125 0
0.0625 0.78125 0
0 0.78125 0
0.03125 0.78125 0
0 0.8125 0
0.03125 0.8125 0
0.03125 0.78125 0
0.0625 0.78125 0
0.03125 0.8125 0
0.0625 0.8125 0
0.0625 0.75 0
0.09375 0.75 0
0.0625 0.78125 0
0.09375 0.78125 0
0.09375 0.75 0
0.125 0.75 0
0.09375 0.78125 0
0.125 0.78125 0
0.0625 0.78125 0
0.09375 0.78125 0
0.0625 0.8125 0
0.09375 0.8125 0
0.09375 0.78125 0
0.125 0.78125 0
0.09375 0.8125 0
0.125 0.8125 0
0 0.8125 0
0.03125 0.8125 0
0 0.84375 0
0.03125 0.84375 0
0.03125 0.8125 0
0.0625 0.8125 0
0.03125 0.84375 0
0.0625 0.84375 0
0 0.84375 0
0.03125 0.84375 0
0 0.875 0
0.03125 0.875 0
0.03125 0.84375 0
0.0625 0.84375 0
0.03125 0.875 0
0.0625 0.875 0
0.0625 0.8125 0
0.09375 0.8125 0
0.0625 0.84375 0
0.09375 0.84375 0
0.09375 0.8125 0
0.125 0.8125 0
0.09375 0.84375 0
0.125 0.84375 0
0.0625 0.84375 0
0.09375 0.84375 0
0.0625 0.875 0
0.09375 0.875 0
0.09375 0.84375 0
0.125 0.84375 0
0.09375 0.875 0
0.125 0.875 0
0.125 0.75 0
0.15625 0.75 0
0.125 0.78125 0
0.15625 0.78125 0
0.15625 0.75 0
0.1875 0.75 0
0.15625 0.78125 0
0.1875 0.78125 0
0.125 0.78125 0
0.15625 0.78125 0
0.125 0.8125 0
0.15625 0.8125 0
0.15625 0.78125 0
0.1875 0.78125 0
0.15625 0.8125 0
0.1875 0.8125 0
0.1875 0.75 0
0.21875 0.75 0
0.1875 0.78125 0
0.21875 0.78125 0
0.21875 0.75 0
0.25 0.75 0
0.21875 0.78125 0
0.25 0.78125 0
0.1875 0.78125 0
0.21875 0.78125 0
0.1875 0.8125 0
0.21875 0.8125 0
0.21875 0.78125 0
0.25 0.78125 0
0.21875 0.8125 0
0.25 0.8125 0
0.125 0.8125 0
0.15625 0.8125 0
0.125 0.84375 0
0.15625 0.84375 0
0.15625 0.8125 0
[...]
POINT_DATA 4096
SCALARS x_dis double 1
LOOKUP_TABLE default
9.5101e-05 7.89813e-05 0.000114108 9.59266e-05 7.89813e-05 6.56319e-05 9.59266e-05 8.05371e-05 0.000114108 9.59266e-05 0.000135348 0.000115217 9.59266e-05 8.05371e-05 0.000115217 9.7776e-05 6.56319e-05 5.47534e-05 8.05371e-05 6.77259e-05 5.47534e-05 4.59445e-05 6.77259e-05 5.71506e-05 8.05371e-05 6.77259e-05 9.7776e-05 8.29159e-05 6.77259e-05 5.71506e-05 8.29159e-05 7.03851e-05 0.000135348 0.000115217 0.000158681 0.000136813 0.000115217 9.7776e-05 0.000136813 0.000117388 0.000158681 0.000136813 0.000183817 0.00016052 0.000136813 0.000117388 0.00016052 0.000139262 9.7776e-05 8.29159e-05 0.000117388 0.000100418 8.29159e-05 7.03851e-05 0.000100418 8.57746e-05 0.000117388 0.000100418 0.000139262 0.000120192 0.000100418 8.57746e-05 0.000120192 0.000103331 4.59445e-05 3.87726e-05 5.71506e-05 4.84035e-05 3.87726e-05 3.28307e-05 4.84035e-05 4.10731e-05 5.71506e-05 4.84035e-05 7.03851e-05 5.98321e-05 4.84035e-05 4.10731e-05 5.98321e-05 5.08644e-05 3.28307e-05 2.7777e-05 4.10731e-05 3.47927e-05 2.7777e-05 2.33545e-05 3.47927e-05 2.92687e-05 4.10731e-05 3.47927e-05 5.08644e-05 4.3103e-05 3.47927e-05 2.92687e-05 4.3103e-05 3.62175e-05 7.03851e-05 5.98321e-05 8.57746e-05 7.31985e-05 5.98321e-05 5.08644e-05 7.31985e-05 6.2348e-05 8.57746e-05 7.31985e-05 0.000103331 8.85496e-05 7.31985e-05 6.2348e-05 8.85496e-05 7.55944e-05 5.08644e-05 4.3103e-05 6.2348e-05 5.2854e-05 4.3103e-05 3.62175e-05 5.2854e-05 4.43625e-05 6.2348e-05 5.2854e-05 7.55944e-05 6.41369e-05 5.2854e-05 4.43625e-05 6.41369e-05 5.38247e-05 0.000183817 0.00016052 0.000210275 0.00018593 0.00016052 0.000139262 0.00018593 0.000163071 0.000210275 0.00018593 0.000237343 0.000212364 0.00018593 0.000163071 0.000212364 0.000188205 0.000139262 0.000120192 0.000163071 0.000141991 0.000120192 0.000103331 0.000141991 0.000122884 0.000163071 0.000141991 0.000188205 0.000165304 0.000141991 0.000122884 0.000165304 0.000144028 0.000237343 0.000212364 0.000264085 0.000238867 0.000212364 0.000188205 0.000238867 0.000213759 0.000264085 0.000238867 0.000289417 0.000264283 0.000238867 0.000213759 0.000264283 0.000238598 0.000188205 0.000165304 0.000213759 0.000189326 0.000165304 0.000144028 0.000189326 0.000166087 0.000213759 0.000189326 0.000238598 0.000213016 0.000189326 0.000166087 0.000213016 0.000188155 0.000103331 8.85496e-05 0.000122884 0.000105781 8.85496e-05 7.55944e-05 0.000105781 9.055e-05 0.000122884 0.000105781 0.000144028 0.000124584 0.000105781 9.055e-05 0.000124584 0.000106989 7.55944e-05 6.41369e-05 9.055e-05 7.69382e-05 6.41369e-05 5.38247e-05 7.69382e-05 6.46281e-05 9.055e-05 7.69382e-05 0.000106989 9.10972e-05 7.69382e-05 6.46281e-05 9.10972e-05 7.66597e-05 0.000144028 0.000124584 0.000166087 0.000144415 0.000124584 0.000106989 0.000144415 0.000124484 0.000166087 0.000144415 0.000188155 0.000164515 0.000144415 0.000124484 0.000164515 0.00014242 0.000106989 9.10972e-05 0.000124484 0.000106282 9.10972e-05 7.66597e-05 0.000106282 8.96544e-05 0.000124484 0.000106282 0.00014242 0.000121996 0.000106282 8.96544e-05 0.000121996 0.000103205 2.33545e-05 1.93982e-05 2.92687e-05 2.42918e-05 1.93982e-05 1.58373e-05 2.42918e-05 1.97364e-05 2.92687e-05 2.42918e-05 3.62175e-05 2.99402e-05 2.42918e-05 1.97364e-05 2.99402e-05 2.40579e-05 1.58373e-05 1.27027e-05 1.97364e-05 1.55518e-05 1.27027e-05 1.01505e-05 1.55518e-05 1.17444e-05 1.97364e-05 1.55518e-05 2.40579e-05 1.83799e-05 1.55518e-05 1.17444e-05 1.83799e-05 1.2664e-05 3.62175e-05 2.99402e-05 4.43625e-05 3.65544e-05 2.99402e-05 2.40579e-05 3.65544e-05 2.91379e-05 4.43625e-05 3.65544e-05 5.38247e-05 4.43124e-05 3.65544e-05 2.91379e-05 4.43124e-05 3.5266e-05 2.40579e-05 1.83799e-05 2.91379e-05 2.18123e-05 1.83799e-05 1.2664e-05 2.18123e-05 1.41987e-05 2.91379e-05 2.18123e-05 3.5266e-05 2.63458e-05 2.18123e-05 1.41987e-05 2.63458e-05 1.71831e-05 1.01505e-05 8.54226e-06 1.17444e-05 8.31237e-06 8.54226e-06 8.61698e-06 8.31237e-06 5.02824e-06 1.17444e-05 8.31237e-06 1.2664e-05 6.45178e-06 8.31237e-06 5.02824e-06 6.45178e-06 -1.33424e-06 8.61698e-06 1.28995e-05 5.02824e-06 -3.10871e-07 1.28995e-05 2.19419e-05 -3.10871e-07 -1.70881e-05 5.02824e-06 -3.10871e-07 -1.33424e-06 -1.30399e-05 -3.10871e-07 -1.70881e-05 -1.30399e-05 -2.6001e-05 1.2664e-05 6.45178e-06 1.41987e-05 5.74632e-06 6.45178e-06 -1.33424e-06 5.74632e-06 -4.29765e-06 1.41987e-05 5.74632e-06 1.71831e-05 7.39816e-06 5.74632e-06 -4.29765e-06 7.39816e-06 -3.14179e-06 -1.33424e-06 -1.30399e-05 -4.29765e-06 -1.57397e-05 -1.30399e-05 -2.6001e-05 -1.57397e-05 -2.6594e-05 -4.29765e-06 -1.57397e-05 -3.14179e-06 -1.39486e-05 -1.57397e-05 -2.6594e-05 -1.39486e-05 -2.36623e-05 5.38247e-05 4.43124e-05 6.46281e-05 5.32802e-05 4.43124e-05 3.5266e-05 5.32802e-05 4.25578e-05 6.46281e-05 5.32802e-05 7.66597e-05 6.33743e-05 5.32802e-05 4.25578e-05 6.33743e-05 5.09305e-05 3.5266e-05 2.63458e-05 4.25578e-05 3.21365e-05 2.63458e-05 1.71831e-05 3.21365e-05 2.172e-05 4.25578e-05 3.21365e-05 5.09305e-05 3.90396e-05 3.21365e-05 2.172e-05 3.90396e-05 2.7469e-05 7.66597e-05 6.33743e-05 8.96544e-05 7.43642e-05 6.33743e-05 5.09305e-05 7.43642e-05 6.01459e-05 8.96544e-05 7.43642e-05 0.000103205 8.58977e-05 7.43642e-05 6.01459e-05 8.58977e-05 6.98677e-05 5.09305e-05 3.90396e-05 6.01459e-05 4.67483e-05 3.90396e-05 2.7469e-05 4.67483e-05 3.39706e-05 6.01459e-05 4.67483e-05 6.98677e-05 5.49022e-05 4.67483e-05 3.39706e-05 5.49022e-05 4.08145e-05 1.71831e-05 7.39816e-06 2.172e-05 1.11125e-05 7.39816e-06 -3.14179e-06 1.11125e-05 3.53872e-07 2.172e-05 1.11125e-05 2.7469e-05 1.60937e-05 1.11125e-05 3.53872e-07 1.60937e-05 4.96362e-06 -3.14179e-06 -1.39486e-05 3.53872e-07 -1.01257e-05 -1.39486e-05 -2.36623e-05 -1.01257e-05 -1.95644e-05 3.53872e-07 -1.01257e-05 4.96362e-06 -5.66871e-06 -1.01257e-05 -1.95644e-05 -5.66871e-06 -1.54217e-05 2.7469e-05 1.60937e-05 3.39706e-05 2.16963e-05 1.60937e-05 4.96362e-06 2.16963e-05 9.91603e-06 3.39706e-05 2.16963e-05 4.08145e-05 2.74677e-05 2.16963e-05 9.91603e-06 2.74677e-05 1.47833e-05 4.96362e-06 -5.66871e-06 9.91603e-06 -1.27731e-06 -5.66871e-06 -1.54217e-05 -1.27731e-06 -1.17492e-05 9.91603e-06 -1.27731e-06 1.47833e-05 2.72681e-06 -1.27731e-06 -1.17492e-05 2.72681e-06 -8.72901e-06 0.000289417 0.000264283 0.000312291 0.000287443 0.000264283 0.000238598 0.000287443 0.00026154 0.000312291 0.000287443 0.000331909 0.000307432 0.000287443 0.00026154 0.000307432 0.000281602 0.000238598 0.000213016 0.00026154 0.000235247 0.000213016 0.000188155 0.000235247 0.000209208 0.00026154 0.000235247 0.000281602 0.000255021 0.000235247 0.000209208 0.000255021 0.000228285 0.000331909 0.000307432 0.000347909 0.000323779 0.000307432 0.000281602 0.000323779 0.000298209 0.000347909 0.000323779 0.000360338 0.00033648 0.000323779 0.000298209 0.00033648 0.000311237 0.000281602 0.000255021 0.000298209 0.000271673 0.000255021 0.000228285 0.000271673 0.000244665 0.000298209 0.000271673 0.000311237 0.000284939 0.000271673 0.000244665 0.000284939 0.000257961 0.000188155 0.000164515 0.000209208 0.000183996 0.000164515 0.00014242 0.000183996 0.000160046 0.000209208 0.000183996 0.000228285 0.000201971 0.000183996 0.000160046 0.000201971 0.000176578 0.00014242 0.000121996 0.000160046 0.000137617 0.000121996 0.000103205 0.000137617 0.000116797 0.000160046 0.000137617 0.000176578 0.00015247 0.000137617 0.000116797 0.00015247 0.000129856 0.000228285 0.000201971 0.000244665 0.00021771 0.000201971 0.000176578 0.00021771 0.000191316 0.000244665 0.00021771 0.000257961 0.000230736 0.00021771 0.000191316 0.000230736 0.00020374 0.000176578 0.00015247 0.000191316 0.000165915 0.00015247 0.000129856 0.000165915 0.000141818 0.000191316 0.000165915 0.00020374 0.000177431 0.000165915 0.000141818 0.000177431 0.000152194 0.000360338 0.00033648 0.000369509 0.000345833 0.00033648 0.000311237 0.000345833 0.000320887 0.000369509 0.000345833 0.000375784 0.000352216 0.000345833 0.000320887 0.000352216 0.000327488 0.000311237 0.000284939 0.000320887 0.000294882 0.000284939 0.000257961 0.000294882 0.000268081 0.000320887 0.000294882 0.000327488 0.000301731 0.000294882 0.000268081 0.000301731 0.000275129 0.000375784 0.000352216 0.000379444 0.000355931 0.000352216 0.000327488 0.000355931 0.00033133 0.000379444 0.000355931 0.000380647 0.000357152 0.000355931 0.00033133 0.000357152 0.000332591 0.000327488 0.000301731 0.00033133 0.000305729 0.000301731 0.000275129 0.000305729 0.000279269 0.00033133 0.000305729 0.000332591 0.000307043 0.000305729 0.000279269 0.000307043 0.000280633 0.000257961 0.000230736 0.000268081 0.000240825 0.000230736 0.00020374 0.000240825 0.000213529 0.000268081 0.000240825 0.000275129 0.000247945 0.000240825 0.000213529 0.000247945 0.000220536 0.00020374 0.000177431 0.000213529 0.000186645 0.000177431 0.000152194 0.000186645 0.000160598 0.000213529 0.000186645 0.000220536 0.000193326 0.000186645 0.000160598 0.000193326 0.000166759 0.000275129 0.000247945 0.000279269 0.000252165 0.000247945 0.000220536 0.000252165 0.000224729 0.000279269 0.000252165 0.000280633 0.000253561 0.000252165 0.000224729 0.000253561 0.000226123 0.000220536 0.000193326 0.000224729 0.000197362 0.000193326 0.000166759 0.000197362 0.000170511 0.000224729 0.000197362 0.000226123 0.00019871 0.000197362 0.000170511 0.00019871 0.00017177 0.000103205 8.58977e-05 0.000116797 9.75379e-05 8.58977e-05 6.98677e-05 9.75379e-05 7.9709e-05 0.000116797 9.75379e-05 0.000129856 0.000108799 9.75379e-05 7.9709e-05 0.000108799 8.92566e-05 6.98677e-05 5.49022e-05 7.9709e-05 6.31401e-05 5.49022e-05 4.08145e-05 6.31401e-05 4.76577e-05 7.9709e-05 6.31401e-05 8.92566e-05 7.11128e-05 6.31401e-05 4.76577e-05 7.11128e-05 5.4215e-05 0.000129856 0.000108799 0.000141818 0.000119199 0.000108799 8.92566e-05 0.000119199 9.81071e-05 0.000141818 0.000119199 0.000152194 0.000128298 0.000119199 9.81071e-05 0.000128298 0.000105886 8.92566e-05 7.11128e-05 9.81071e-05 7.84937e-05 7.11128e-05 5.4215e-05 7.84937e-05 6.02368e-05 9.81071e-05 7.84937e-05 0.000105886 8.4981e-05 7.84937e-05 6.02368e-05 8.4981e-05 6.55007e-05 4.08145e-05 2.74677e-05 4.76577e-05 3.31027e-05 2.74677e-05 1.47833e-05 3.31027e-05 1.93344e-05 4.76577e-05 3.31027e-05 5.4215e-05 3.83891e-05 3.31027e-05 1.93344e-05 3.83891e-05 2.34496e-05 1.47833e-05 2.72681e-06 1.93344e-05 6.2244e-06 2.72681e-06 -8.72901e-06 6.2244e-06 -6.36452e-06 1.93344e-05 6.2244e-06 2.34496e-05 9.19881e-06 6.2244e-06 -6.36452e-06 9.19881e-06 -4.57945e-06 5.4215e-05 3.83891e-05 6.02368e-05 4.31613e-05 3.83891e-05 2.34496e-05 4.31613e-05 2.70529e-05 6.02368e-05 4.31613e-05 6.55007e-05 4.72801e-05 4.31613e-05 2.70529e-05 4.72801e-05 3.00904e-05 2.34496e-05 9.19881e-06 2.70529e-05 1.16659e-05 9.19881e-06 -4.57945e-06 1.16659e-05 -3.27259e-06 2.70529e-05 1.16659e-05 3.00904e-05 1.36543e-05 1.16659e-05 -3.27259e-06 1.36543e-05 -2.34265e-06 0.000152194 0.000128298 0.000160598 0.000135734 0.000128298 0.000105886 0.000135734 0.000112276 0.000160598 0.000135734 0.000166759 0.000141229 0.000135734 0.000112276 0.000141229 0.000117021 0.000105886 8.4981e-05 0.000112276 9.0315e-05 8.4981e-05 6.55007e-05 9.0315e-05 6.98137e-05 0.000112276 9.0315e-05 0.000117021 9.42825e-05 9.0315e-05 6.98137e-05 9.42825e-05 7.30159e-05 0.000166759 0.000141229 0.000170511 0.000144595 0.000141229 0.000117021 0.000144595 0.000119939 0.000170511 0.000144595 0.00017177 0.000145728 0.000144595 0.000119939 0.000145728 0.000120923 0.000117021 9.42825e-05 0.000119939 9.67263e-05 9.42825e-05 7.30159e-05 9.67263e-05 7.4987e-05 0.000119939 9.67263e-05 0.000120923 9.75514e-05 9.67263e-05 7.4987e-05 9.75514e-05 7.56524e-05 6.55007e-05 4.72801e-05 6.98137e-05 5.06248e-05 4.72801e-05 3.00904e-05 5.06248e-05 3.25148e-05 6.98137e-05 5.06248e-05 7.30159e-05 5.30936e-05 5.06248e-05 3.25148e-05 5.30936e-05 3.42828e-05 3.00904e-05 1.36543e-05 3.25148e-05 1.51855e-05 1.36543e-05 -2.34265e-06 1.51855e-05 -1.7063e-06 3.25148e-05 1.51855e-05 3.42828e-05 1.62732e-05 1.51855e-05 -1.7063e-06 1.62732e-05 -1.29707e-06 7.30159e-05 5.30936e-05 7.4987e-05 5.46081e-05 5.30936e-05 3.42828e-05 5.46081e-05 3.53591e-05 7.4987e-05 5.46081e-05 7.56524e-05 5.51185e-05 5.46081e-05 3.53591e-05 5.51185e-05 3.57207e-05 3.42828e-05 1.62732e-05 3.53591e-05 1.69243e-05 1.62732e-05 -1.29707e-06 1.69243e-05 -1.06928e-06 3.53591e-05 1.69243e-05 3.57207e-05 1.71411e-05 1.69243e-05 -1.06928e-06 1.71411e-05 -9.96287e-07 2.19419e-05 1.99847e-05 -1.70881e-05 -2.51289e-05 1.99847e-05 6.68763e-06 -2.51289e-05 -1.96605e-05 -1.70881e-05 -2.51289e-05 -2.6001e-05 -3.33915e-05 -2.51289e-05 -1.96605e-05 -3.33915e-05 -3.30326e-05 6.68763e-06 -6.90165e-06 -1.96605e-05 -1.99389e-05 -6.90165e-06 -1.75981e-05 -1.99389e-05 -2.27864e-05 -1.96605e-05 -1.99389e-05 -3.30326e-05 -3.01722e-05 -1.99389e-05 -2.27864e-05 -3.01722e-05 -2.94282e-05 -2.6001e-05 -3.33915e-05 -2.6594e-05 -3.35778e-05 -3.33915e-05 -3.30326e-05 -3.35778e-05 -3.56917e-05 -2.6594e-05 -3.35778e-05 -2.36623e-05 -3.0772e-05 -3.35778e-05 -3.56917e-05 -3.0772e-05 -3.48302e-05 -3.30326e-05 -3.01722e-05 -3.56917e-05 -3.51909e-05 -3.01722e-05 -2.94282e-05 -3.51909e-05 -3.46859e-05 -3.56917e-05 -3.51909e-05 -3.48302e-05 -3.68378e-05 -3.51909e-05 -3.46859e-05 -3.68378e-05 -3.83751e-05 -1.75981e-05 -2.59463e-05 -2.27864e-05 -2.65837e-05 -2.59463e-05 -3.24169e-05 -2.65837e-05 -3.05748e-05 -2.27864e-05 -2.65837e-05 -2.94282e-05 -3.05731e-05 -2.65837e-05 -3.05748e-05 -3.05731e-05 -3.30251e-05 -3.24169e-05 -3.74095e-05 -3.05748e-05 -3.44384e-05 -3.74095e-05 -4.11351e-05 -3.44384e-05 -3.80387e-05 -3.05748e-05 -3.44384e-05 -3.30251e-05 -3.63098e-05 -3.44384e-05 -3.80387e-05 -3.63098e-05 -4.01447e-05 -2.94282e-05 -3.05731e-05 -3.46859e-05 -3.5555e-05 -3.05731e-05 -3.30251e-05 -3.5555e-05 -3.78824e-05 -3.46859e-05 -3.5555e-05 -3.83751e-05 -4.0596e-05 -3.5555e-05 -3.78824e-05 -4.0596e-05 -4.40311e-05 -3.30251e-05 -3.63098e-05 -3.78824e-05 -4.14641e-05 -3.63098e-05 -4.01447e-05 -4.14641e-05 -4.60983e-05 -3.78824e-05 -4.14641e-05 -4.40311e-05 -4.87824e-05 -4.14641e-05 -4.60983e-05 -4.87824e-05 -5.48276e-05 -2.36623e-05 -3.0772e-05 -1.95644e-05 -2.72424e-05 -3.0772e-05 -3.48302e-05 -2.72424e-05 -3.29957e-05 -1.95644e-05 -2.72424e-05 -1.54217e-05 -2.39908e-05 -2.72424e-05 -3.29957e-05 -2.39908e-05 -3.13707e-05 -3.48302e-05 -3.68378e-05 -3.29957e-05 -3.73737e-05 -3.68378e-05 -3.83751e-05 -3.73737e-05 -4.13066e-05 -3.29957e-05 -3.73737e-05 -3.13707e-05 -3.79255e-05 -3.73737e-05 -4.13066e-05 -3.79255e-05 -4.42538e-05 -1.54217e-05 -2.39908e-05 -1.17492e-05 -2.14299e-05 -2.39908e-05 -3.13707e-05 -2.14299e-05 -3.04159e-05 -1.17492e-05 -2.14299e-05 -8.72901e-06 -1.96582e-05 -2.14299e-05 -3.04159e-05 -1.96582e-05 -3.02298e-05 -3.13707e-05 -3.79255e-05 -3.04159e-05 -3.8999e-05 -3.79255e-05 -4.42538e-05 -3.8999e-05 -4.76103e-05 -3.04159e-05 -3.8999e-05 -3.02298e-05 -4.07191e-05 -3.8999e-05 -4.76103e-05 -4.07191e-05 -5.14795e-05 -3.83751e-05 -4.0596e-05 -4.13066e-05 -4.56577e-05 -4.0596e-05 -4.40311e-05 -4.56577e-05 -5.09846e-05 -4.13066e-05 -4.56577e-05 -4.42538e-05 -5.09748e-05 -4.56577e-05 -5.09846e-05 -5.09748e-05 -5.85831e-05 -4.40311e-05 -4.87824e-05 -5.09846e-05 -5.75718e-05 -4.87824e-05 -5.48276e-05 -5.75718e-05 -6.55527e-05 -5.09846e-05 -5.75718e-05 -5.85831e-05 -6.74163e-05 -5.75718e-05 -6.55527e-05 -6.74163e-05 -7.77003e-05 -4.42538e-05 -5.09748e-05 -4.76103e-05 -5.6718e-05 -5.09748e-05 -5.85831e-05 -5.6718e-05 -6.67403e-05 -4.76103e-05 -5.6718e-05 -5.14795e-05 -6.28903e-05 -5.6718e-05 -6.67403e-05 -6.28903e-05 -7.531e-05 -5.85831e-05 -6.74163e-05 -6.67403e-05 -7.80123e-05 -6.74163e-05 -7.77003e-05 -7.80123e-05 -9.07923e-05 -6.67403e-05 -7.80123e-05 -7.531e-05 -8.90484e-05 -7.80123e-05 -9.07923e-05 -8.90484e-05 -0.000104356 -4.11351e-05 -4.36537e-05 -3.80387e-05 -4.13248e-05 -4.36537e-05 -4.4944e-05 -4.13248e-05 -4.4303e-05 -3.80387e-05 -4.13248e-05 -4.01447e-05 -4.44033e-05 -4.13248e-05 -4.4303e-05 -4.44033e-05 -4.9075e-05 -4.4944e-05 -4.50005e-05 -4.4303e-05 -4.70404e-05 -4.50005e-05 -4.3944e-05 -4.70404e-05 -4.96765e-05 -4.4303e-05 -4.70404e-05 -4.9075e-05 -5.42268e-05 -4.70404e-05 -4.96765e-05 -5.42268e-05 -5.99611e-05 -4.01447e-05 -4.44033e-05 -4.60983e-05 -5.16813e-05 -4.44033e-05 -4.9075e-05 -5.16813e-05 -5.82104e-05 -4.60983e-05 -5.16813e-05 -5.48276e-05 -6.21556e-05 -5.16813e-05 -5.82104e-05 -6.21556e-05 -7.08056e-05 -4.9075e-05 -5.42268e-05 -5.82104e-05 -6.57468e-05 -5.42268e-05 -5.99611e-05 -6.57468e-05 -7.43578e-05 -5.82104e-05 -6.57468e-05 -7.08056e-05 -8.08448e-05 -6.57468e-05 -7.43578e-05 -8.08448e-05 -9.23134e-05 -4.3944e-05 -4.21256e-05 -4.96765e-05 -5.24193e-05 -4.21256e-05 -4.02008e-05 -5.24193e-05 -5.55084e-05 -4.96765e-05 -5.24193e-05 -5.99611e-05 -6.63634e-05 -5.24193e-05 -5.55084e-05 -6.63634e-05 -7.34595e-05 -4.02008e-05 -3.91214e-05 -5.55084e-05 -5.91234e-05 -3.91214e-05 -3.98261e-05 -5.91234e-05 -6.34055e-05 -5.55084e-05 -5.91234e-05 -7.34595e-05 -8.12558e-05 -5.91234e-05 -6.34055e-05 -8.12558e-05 -9.00677e-05 -5.99611e-05 -6.63634e-05 -7.43578e-05 -8.40561e-05 -6.63634e-05 -7.34595e-05 -8.40561e-05 -9.47713e-05 -7.43578e-05 -8.40561e-05 -9.23134e-05 -0.000105164 -8.40561e-05 -9.47713e-05 -0.000105164 -0.000119232 -7.34595e-05 -8.12558e-05 -9.47713e-05 -0.000106421 -8.12558e-05 -9.00677e-05 -0.000106421 -0.000119032 -9.47713e-05 -0.000106421 -0.000119232 -0.000134267 -0.000106421 -0.000119032 -0.000134267 -0.000150042 -5.48276e-05 -6.21556e-05 -6.55527e-05 -7.50196e-05 -6.21556e-05 -7.08056e-05 -7.50196e-05 -8.6064e-05 -6.55527e-05 -7.50196e-05 -7.77003e-05 -8.96e-05 -7.50196e-05 -8.6064e-05 -8.96e-05 -0.000103241 -7.08056e-05 -8.08448e-05 -8.6064e-05 -9.87599e-05 -8.08448e-05 -9.23134e-05 -9.87599e-05 -0.000113111 -8.6064e-05 -9.87599e-05 -0.000103241 -0.000118686 -9.87599e-05 -0.000113111 -0.000118686 -0.000135881 -7.77003e-05 -8.96e-05 -9.07923e-05 -0.000105275 -8.96e-05 -0.000103241 -0.000105275 -0.000121584 -9.07923e-05 -0.000105275 -0.000104356 -0.000121411 -0.000105275 -0.000121584 -0.000121411 -0.000140302 -0.000103241 -0.000118686 -0.000121584 -0.000139743 -0.000118686 -0.000135881 -0.000139743 -0.000159613 -0.000121584 -0.000139743 -0.000140302 -0.000160978 -0.000139743 -0.000159613 -0.000160978 -0.000183203 -9.23134e-05 -0.000105164 -0.000113111 -0.000128993 -0.000105164 -0.000119232 -0.000128993 -0.000146115 -0.000113111 -0.000128993 -0.000135881 -0.000154599 -0.000128993 -0.000146115 -0.000154599 -0.000174408 -0.000119232 -0.000134267 -0.000146115 -0.000164046 -0.000134267 -0.000150042 -0.000164046 -0.000182303 -0.000146115 -0.000164046 -0.000174408 -0.000194701 -0.000164046 -0.000182303 -0.000194701 -0.000214781 -0.000135881 -0.000154599 -0.000159613 -0.000180853 -0.000154599 -0.000174408 -0.000180853 -0.000202898 -0.000159613 -0.000180853 -0.000183203 -0.000206525 -0.000180853 -0.000202898 -0.000206525 -0.00023028 -0.000174408 -0.000194701 -0.000202898 -0.000225 -0.000194701 -0.000214781 -0.000225 -0.000246303 -0.000202898 -0.000225 -0.00023028 -0.000253642 -0.000225 -0.000246303 -0.000253642 -0.000275674 -8.72901e-06 -1.96582e-05 -6.36452e-06 -1.86049e-05 -1.96582e-05 -3.02298e-05 -1.86049e-05 -3.07237e-05 -6.36452e-06 -1.86049e-05 -4.57945e-06 -1.81276e-05 -1.86049e-05 -3.07237e-05 -1.81276e-05 -3.172e-05 -3.02298e-05 -4.07191e-05 -3.07237e-05 -4.30033e-05 -4.07191e-05 -5.14795e-05 -4.30033e-05 -5.57654e-05 -3.07237e-05 -4.30033e-05 -3.172e-05 -4.56577e-05 -4.30033e-05 -5.57654e-05 -4.56577e-05 -6.02557e-05 -4.57945e-06 -1.81276e-05 -3.27259e-06 -1.80591e-05 -1.81276e-05 -3.172e-05 -1.80591e-05 -3.30086e-05 -3.27259e-06 -1.80591e-05 -2.34265e-06 -1.82392e-05 -1.80591e-05 -3.30086e-05 -1.82392e-05 -3.43839e-05 -3.172e-05 -4.56577e-05 -3.30086e-05 -4.84444e-05 -4.56577e-05 -6.02557e-05 -4.84444e-05 -6.46834e-05 -3.30086e-05 -4.84444e-05 -3.43839e-05 -5.11202e-05 -4.84444e-05 -6.46834e-05 -5.11202e-05 -6.87698e-05 -5.14795e-05 -6.28903e-05 -5.57654e-05 -6.93427e-05 -6.28903e-05 -7.531e-05 -6.93427e-05 -8.40489e-05 -5.57654e-05 -6.93427e-05 -6.02557e-05 -7.5821e-05 -6.93427e-05 -8.40489e-05 -7.5821e-05 -9.2631e-05 -7.531e-05 -8.90484e-05 -8.40489e-05 -0.000100156 -8.90484e-05 -0.000104356 -0.000100156 -