# vtk DataFile Version 3.0
#This file was generated by the deal.II library on 2022/11/17 at 1:09:40
ASCII
DATASET UNSTRUCTURED_GRID

POINTS 10240 double
0.4375 0.75 0
0.46875 0.75 0
0.4375 0.78125 0
0.46875 0.78125 0
0.46875 0.75 0
0.5 0.75 0
0.46875 0.78125 0
0.5 0.78125 0
0.4375 0.78125 0
0.46875 0.78125 0
0.4375 0.8125 0
0.46875 0.8125 0
0.46875 0.78125 0
0.5 0.78125 0
0.46875 0.8125 0
0.5 0.8125 0
0.4375 0.8125 0
0.46875 0.8125 0
0.4375 0.84375 0
0.46875 0.84375 0
0.46875 0.8125 0
0.5 0.8125 0
0.46875 0.84375 0
0.5 0.84375 0
0.4375 0.84375 0
0.46875 0.84375 0
0.4375 0.875 0
0.46875 0.875 0
0.46875 0.84375 0
0.5 0.84375 0
0.46875 0.875 0
0.5 0.875 0
0.375 0.875 0
0.40625 0.875 0
0.375 0.90625 0
0.40625 0.90625 0
0.40625 0.875 0
0.4375 0.875 0
0.40625 0.90625 0
0.4375 0.90625 0
0.375 0.90625 0
0.40625 0.90625 0
0.375 0.9375 0
0.40625 0.9375 0
0.40625 0.90625 0
0.4375 0.90625 0
0.40625 0.9375 0
0.4375 0.9375 0
0.4375 0.875 0
0.46875 0.875 0
0.4375 0.90625 0
0.46875 0.90625 0
0.46875 0.875 0
0.5 0.875 0
0.46875 0.90625 0
0.5 0.90625 0
0.4375 0.90625 0
0.46875 0.90625 0
0.4375 0.9375 0
0.46875 0.9375 0
0.46875 0.90625 0
0.5 0.90625 0
0.46875 0.9375 0
0.5 0.9375 0
0.625 0.5 0
0.65625 0.5 0
0.625 0.53125 0
0.65625 0.53125 0
0.65625 0.5 0
0.6875 0.5 0
0.65625 0.53125 0
0.6875 0.53125 0
0.625 0.53125 0
0.65625 0.53125 0
0.625 0.5625 0
0.65625 0.5625 0
0.65625 0.53125 0
0.6875 0.53125 0
0.65625 0.5625 0
0.6875 0.5625 0
0.6875 0.5 0
0.71875 0.5 0
0.6875 0.53125 0
0.71875 0.53125 0
0.71875 0.5 0
0.75 0.5 0
0.71875 0.53125 0
0.75 0.53125 0
0.6875 0.53125 0
0.71875 0.53125 0
0.6875 0.5625 0
0.71875 0.5625 0
0.71875 0.53125 0
0.75 0.53125 0
0.71875 0.5625 0
0.75 0.5625 0
0.625 0.5625 0
0.65625 0.5625 0
0.625 0.59375 0
0.65625 0.59375 0
0.65625 0.5625 0
0.6875 0.5625 0
0.65625 0.59375 0
0.6875 0.59375 0
0.625 0.59375 0
0.65625 0.59375 0
0.625 0.625 0
0.65625 0.625 0
0.65625 0.59375 0
0.6875 0.59375 0
0.65625 0.625 0
0.6875 0.625 0
0.6875 0.5625 0
0.71875 0.5625 0
0.6875 0.59375 0
0.71875 0.59375 0
0.71875 0.5625 0
0.75 0.5625 0
0.71875 0.59375 0
0.75 0.59375 0
0.6875 0.59375 0
0.71875 0.59375 0
0.6875 0.625 0
0.71875 0.625 0
0.71875 0.59375 0
0.75 0.59375 0
0.71875 0.625 0
0.75 0.625 0
0.5625 0.625 0
0.59375 0.625 0
0.5625 0.65625 0
0.59375 0.65625 0
0.59375 0.625 0
0.625 0.625 0
0.59375 0.65625 0
0.625 0.65625 0
0.5625 0.65625 0
0.59375 0.65625 0
0.5625 0.6875 0
0.59375 0.6875 0
0.59375 0.65625 0
0.625 0.65625 0
0.59375 0.6875 0
0.625 0.6875 0
0.5 0.6875 0
0.53125 0.6875 0
0.5 0.71875 0
0.53125 0.71875 0
0.53125 0.6875 0
0.5625 0.6875 0
0.53125 0.71875 0
0.5625 0.71875 0
0.5 0.71875 0
0.53125 0.71875 0
0.5 0.75 0
0.53125 0.75 0
0.53125 0.71875 0
0.5625 0.71875 0
0.53125 0.75 0
0.5625 0.75 0
0.5625 0.6875 0
0.59375 0.6875 0
0.5625 0.71875 0
0.59375 0.71875 0
0.59375 0.6875 0
0.625 0.6875 0
0.59375 0.71875 0
0.625 0.71875 0
0.5625 0.71875 0
0.59375 0.71875 0
0.5625 0.75 0
0.59375 0.75 0
0.59375 0.71875 0
0.625 0.71875 0
0.59375 0.75 0
0.625 0.75 0
0.625 0.625 0
0.65625 0.625 0
0.625 0.65625 0
0.65625 0.65625 0
0.65625 0.625 0
0.6875 0.625 0
0.65625 0.65625 0
0.6875 0.65625 0
0.625 0.65625 0
0.65625 0.65625 0
0.625 0.6875 0
0.65625 0.6875 0
0.65625 0.65625 0
0.6875 0.65625 0
0.65625 0.6875 0
0.6875 0.6875 0
0.6875 0.625 0
0.71875 0.625 0
0.6875 0.65625 0
0.71875 0.65625 0
0.71875 0.625 0
0.75 0.625 0
0.71875 0.65625 0
0.75 0.65625 0
0.6875 0.65625 0
0.71875 0.65625 0
0.6875 0.6875 0
0.71875 0.6875 0
0.71875 0.65625 0
0.75 0.65625 0
0.71875 0.6875 0
0.75 0.6875 0
0.625 0.6875 0
0.65625 0.6875 0
0.625 0.71875 0
0.65625 0.71875 0
0.65625 0.6875 0
0.6875 0.6875 0
0.65625 0.71875 0
0.6875 0.71875 0
0.625 0.71875 0
0.65625 0.71875 0
0.625 0.75 0
0.65625 0.75 0
0.65625 0.71875 0
0.6875 0.71875 0
0.65625 0.75 0
0.6875 0.75 0
0.6875 0.6875 0
0.71875 0.6875 0
0.6875 0.71875 0
0.71875 0.71875 0
0.71875 0.6875 0
0.75 0.6875 0
0.71875 0.71875 0
0.75 0.71875 0
0.6875 0.71875 0
0.71875 0.71875 0
0.6875 0.75 0
0.71875 0.75 0
0.71875 0.71875 0
0.75 0.71875 0
0.71875 0.75 0
0.75 0.75 0
0.75 0.5 0
0.78125 0.5 0
0.75 0.53125 0
0.78125 0.53125 0
0.78125 0.5 0
0.8125 0.5 0
0.78125 0.53125 0
0.8125 0.53125 0
0.75 0.53125 0
0.78125 0.53125 0
0.75 0.5625 0
0.78125 0.5625 0
0.78125 0.53125 0
0.8125 0.53125 0
0.78125 0.5625 0
0.8125 0.5625 0
0.8125 0.5 0
0.84375 0.5 0
0.8125 0.53125 0
0.84375 0.53125 0
0.84375 0.5 0
0.875 0.5 0
0.84375 0.53125 0
0.875 0.53125 0
0.8125 0.53125 0
0.84375 0.53125 0
0.8125 0.5625 0
0.84375 0.5625 0
0.84375 0.53125 0
0.875 0.53125 0
0.84375 0.5625 0
0.875 0.5625 0
0.75 0.5625 0
0.78125 0.5625 0
0.75 0.59375 0
0.78125 0.59375 0
0.78125 0.5625 0
0.8125 0.5625 0
0.78125 0.59375 0
0.8125 0.59375 0
0.75 0.59375 0
0.78125 0.59375 0
0.75 0.625 0
0.78125 0.625 0
0.78125 0.59375 0
0.8125 0.59375 0
0.78125 0.625 0
0.8125 0.625 0
0.8125 0.5625 0
0.84375 0.5625 0
0.8125 0.59375 0
0.84375 0.59375 0
0.84375 0.5625 0
0.875 0.5625 0
0.84375 0.59375 0
0.875 0.59375 0
0.8125 0.59375 0
0.84375 0.59375 0
0.8125 0.625 0
0.84375 0.625 0
0.84375 0.59375 0
0.875 0.59375 0
0.84375 0.625 0
0.875 0.625 0
0.875 0.5 0
0.90625 0.5 0
0.875 0.53125 0
0.90625 0.53125 0
0.90625 0.5 0
0.9375 0.5 0
0.90625 0.53125 0
0.9375 0.53125 0
0.875 0.53125 0
0.90625 0.53125 0
0.875 0.5625 0
0.90625 0.5625 0
0.90625 0.53125 0
0.9375 0.53125 0
0.90625 0.5625 0
0.9375 0.5625 0
0.9375 0.5 0
0.96875 0.5 0
0.9375 0.53125 0
0.96875 0.53125 0
0.96875 0.5 0
1 0.5 0
0.96875 0.53125 0
1 0.53125 0
0.9375 0.53125 0
0.96875 0.53125 0
0.9375 0.5625 0
0.96875 0.5625 0
0.96875 0.53125 0
1 0.53125 0
0.96875 0.5625 0
1 0.5625 0
0.875 0.5625 0
0.90625 0.5625 0
0.875 0.59375 0
0.90625 0.59375 0
0.90625 0.5625 0
0.9375 0.5625 0
0.90625 0.59375 0
0.9375 0.59375 0
0.875 0.59375 0
0.90625 0.59375 0
0.875 0.625 0
0.90625 0.625 0
0.90625 0.59375 0
0.9375 0.59375 0
0.90625 0.625 0
0.9375 0.625 0
0.9375 0.5625 0
0.96875 0.5625 0
0.9375 0.59375 0
0.96875 0.59375 0
0.96875 0.5625 0
1 0.5625 0
0.96875 0.59375 0
1 0.59375 0
0.9375 0.59375 0
0.96875 0.59375 0
0.9375 0.625 0
0.96875 0.625 0
0.96875 0.59375 0
1 0.59375 0
0.96875 0.625 0
1 0.625 0
0.75 0.625 0
0.78125 0.625 0
0.75 0.65625 0
0.78125 0.65625 0
0.78125 0.625 0
0.8125 0.625 0
0.78125 0.65625 0
0.8125 0.65625 0
0.75 0.65625 0
0.78125 0.65625 0
0.75 0.6875 0
0.78125 0.6875 0
0.78125 0.65625 0
0.8125 0.65625 0
0.78125 0.6875 0
0.8125 0.6875 0
0.8125 0.625 0
0.84375 0.625 0
0.8125 0.65625 0
0.84375 0.65625 0
0.84375 0.625 0
0.875 0.625 0
0.84375 0.65625 0
0.875 0.65625 0
0.8125 0.65625 0
0.84375 0.65625 0
0.8125 0.6875 0
0.84375 0.6875 0
0.84375 0.65625 0
0.875 0.65625 0
0.84375 0.6875 0
0.875 0.6875 0
0.75 0.6875 0
0.78125 0.6875 0
0.75 0.71875 0
0.78125 0.71875 0
0.78125 0.6875 0
0.8125 0.6875 0
0.78125 0.71875 0
0.8125 0.71875 0
0.75 0.71875 0
0.78125 0.71875 0
0.75 0.75 0
0.78125 0.75 0
0.78125 0.71875 0
0.8125 0.71875 0
0.78125 0.75 0
0.8125 0.75 0
0.8125 0.6875 0
0.84375 0.6875 0
0.8125 0.71875 0
0.84375 0.71875 0
0.84375 0.6875 0
0.875 0.6875 0
0.84375 0.71875 0
0.875 0.71875 0
0.8125 0.71875 0
0.84375 0.71875 0
0.8125 0.75 0
0.84375 0.75 0
0.84375 0.71875 0
0.875 0.71875 0
0.84375 0.75 0
0.875 0.75 0
0.875 0.625 0
0.90625 0.625 0
0.875 0.65625 0
0.90625 0.65625 0
0.90625 0.625 0
0.9375 0.625 0
0.90625 0.65625 0
0.9375 0.65625 0
0.875 0.65625 0
0.90625 0.65625 0
0.875 0.6875 0
0.90625 0.6875 0
0.90625 0.65625 0
0.9375 0.65625 0
0.90625 0.6875 0
0.9375 0.6875 0
0.9375 0.625 0
0.96875 0.625 0
0.9375 0.65625 0
0.96875 0.65625 0
0.96875 0.625 0
1 0.625 0
0.96875 0.65625 0
1 0.65625 0
0.9375 0.65625 0
0.96875 0.65625 0
0.9375 0.6875 0
0.96875 0.6875 0
0.96875 0.65625 0
1 0.65625 0
0.96875 0.6875 0
1 0.6875 0
0.875 0.6875 0
0.90625 0.6875 0
0.875 0.71875 0
0.90625 0.71875 0
0.90625 0.6875 0
0.9375 0.6875 0
0.90625 0.71875 0
0.9375 0.71875 0
0.875 0.71875 0
0.90625 0.71875 0
0.875 0.75 0
0.90625 0.75 0
0.90625 0.71875 0
0.9375 0.71875 0
0.90625 0.75 0
0.9375 0.75 0
0.9375 0.6875 0
0.96875 0.6875 0
0.9375 0.71875 0
0.96875 0.71875 0
0.96875 0.6875 0
1 0.6875 0
0.96875 0.71875 0
1 0.71875 0
0.9375 0.71875 0
0.96875 0.71875 0
0.9375 0.75 0
0.96875 0.75 0
0.96875 0.71875 0
1 0.71875 0
0.96875 0.75 0
1 0.75 0
0.5 0.75 0
0.53125 0.75 0
0.5 0.78125 0
0.53125 0.78125 0
0.53125 0.75 0
0.5625 0.75 0
0.53125 0.78125 0
0.5625 0.78125 0
0.5 0.78125 0
0.53125 0.78125 0
0.5 0.8125 0
0.53125 0.8125 0
0.53125 0.78125 0
0.5625 0.78125 0
0.53125 0.8125 0
0.5625 0.8125 0
0.5625 0.75 0
0.59375 0.75 0
0.5625 0.78125 0
0.59375 0.78125 0
0.59375 0.75 0
0.625 0.75 0
0.59375 0.78125 0
0.625 0.78125 0
0.5625 0.78125 0
0.59375 0.78125 0
0.5625 0.8125 0
0.59375 0.8125 0
0.59375 0.78125 0
0.625 0.78125 0
0.59375 0.8125 0
0.625 0.8125 0
0.5 0.8125 0
0.53125 0.8125 0
0.5 0.84375 0
0.53125 0.84375 0
0.53125 0.8125 0
0.5625 0.8125 0
0.53125 0.84375 0
0.5625 0.84375 0
0.5 0.84375 0
0.53125 0.84375 0
0.5 0.875 0
0.53125 0.875 0
0.53125 0.84375 0
0.5625 0.84375 0
0.53125 0.875 0
0.5625 0.875 0
0.5625 0.8125 0
0.59375 0.8125 0
0.5625 0.84375 0
0.59375 0.84375 0
0.59375 0.8125 0
0.625 0.8125 0
0.59375 0.84375 0
0.625 0.84375 0
0.5625 0.84375 0
0.59375 0.84375 0
0.5625 0.875 0
0.59375 0.875 0
0.59375 0.84375 0
0.625 0.84375 0
0.59375 0.875 0
0.625 0.875 0
0.625 0.75 0
0.65625 0.75 0
0.625 0.78125 0
0.65625 0.78125 0
0.65625 0.75 0
0.6875 0.75 0
0.65625 0.78125 0
0.6875 0.78125 0
0.625 0.78125 0
0.65625 0.78125 0
0.625 0.8125 0
0.65625 0.8125 0
0.65625 0.78125 0
0.6875 0.78125 0
0.65625 0.8125 0
0.6875 0.8125 0
0.6875 0.75 0
0.71875 0.75 0
0.6875 0.78125 0
0.71875 0.78125 0
0.71875 0.75 0
0.75 0.75 0
0.71875 0.78125 0
0.75 0.78125 0
0.6875 0.78125 0
0.71875 0.78125 0
0.6875 0.8125 0
0.71875 0.8125 0
0.71875 0.78125 0
0.75 0.78125 0
0.71875 0.8125 0
0.75 0.8125 0
0.625 0.8125 0
0.65625 0.8125 0
0.625 0.84375 0
0.65625 0.84375 0
0.65625 0.8125 0
0.6875 0.8125 0
0.65625 0.84375 0
0.6875 0.84375 0
0.625 0.84375 0
0.65625 0.84375 0
0.625 0.875 0
0.65625 0.875 0
0.65625 0.84375 0
0.6875 0.84375 0
0.65625 0.875 0
0.6875 0.875 0
0.6875 0.8125 0
0.71875 0.8125 0
0.6875 0.84375 0
[...]
POINT_DATA 10240
SCALARS x_dis double 1
LOOKUP_TABLE default
-0.000140355 -0.000112543 -0.000250831 -0.000214421 -0.000112543 -8.68111e-05 -0.000214421 -0.00017963 -0.000250831 -0.000214421 -0.000349983 -0.000306321 -0.000214421 -0.00017963 -0.000306321 -0.000263909 -0.000349983 -0.000306321 -0.000436291 -0.000386816 -0.000306321 -0.000263909 -0.000386816 -0.000338169 -0.000436291 -0.000386816 -0.00050849 -0.000454647 -0.000386816 -0.000338169 -0.000454647 -0.000401071 -0.000611914 -0.000561282 -0.000674228 -0.000621788 -0.000561282 -0.00050849 -0.000621788 -0.000566092 -0.000674228 -0.000621788 -0.00071901 -0.000665765 -0.000621788 -0.000566092 -0.000665765 -0.000608341 -0.00050849 -0.000454647 -0.000566092 -0.000508858 -0.000454647 -0.000401071 -0.000508858 -0.000451425 -0.000566092 -0.000508858 -0.000608341 -0.000548653 -0.000508858 -0.000451425 -0.000548653 -0.000488268 0.000480112 0.000423809 0.00043638 0.000397445 0.000423809 0.000380494 0.000397445 0.000364179 0.00043638 0.000397445 0.00037483 0.000353714 0.000397445 0.000364179 0.000353714 0.000332714 0.000380494 0.000346118 0.000364179 0.000336583 0.000346118 0.00031869 0.000336583 0.000314118 0.000364179 0.000336583 0.000332714 0.000314032 0.000336583 0.000314118 0.000314032 0.000298373 0.00037483 0.000353714 0.000314965 0.000303414 0.000353714 0.000332714 0.000303414 0.000292437 0.000314965 0.000303414 0.00025577 0.000250756 0.000303414 0.000292437 0.000250756 0.000247449 0.000332714 0.000314032 0.000292437 0.000282471 0.000314032 0.000298373 0.000282471 0.000274147 0.000292437 0.000282471 0.000247449 0.000245158 0.000282471 0.000274147 0.000245158 0.00024389 0.00027804 0.000263842 0.000201261 0.000196022 0.000263842 0.00025577 0.000196022 0.000194605 0.000201261 0.000196022 0.000120964 0.000125249 0.000196022 0.000194605 0.000125249 0.000131804 0.00011497 0.00011787 1.20452e-05 2.60575e-05 0.00011787 0.000120964 2.60575e-05 3.9579e-05 1.20452e-05 2.60575e-05 -8.68111e-05 -6.27723e-05 2.60575e-05 3.9579e-05 -6.27723e-05 -3.96201e-05 0.000120964 0.000125249 3.9579e-05 5.35074e-05 0.000125249 0.000131804 5.35074e-05 6.83191e-05 3.9579e-05 5.35074e-05 -3.96201e-05 -1.68501e-05 5.35074e-05 6.83191e-05 -1.68501e-05 5.90014e-06 0.00025577 0.000250756 0.000194605 0.000196281 0.000250756 0.000247449 0.000196281 0.000199752 0.000194605 0.000196281 0.000131804 0.000140418 0.000196281 0.000199752 0.000140418 0.00015047 0.000247449 0.000245158 0.000199752 0.000204287 0.000245158 0.00024389 0.000204287 0.000209559 0.000199752 0.000204287 0.00015047 0.000161352 0.000204287 0.000209559 0.000161352 0.000172686 0.000131804 0.000140418 6.83191e-05 8.41235e-05 0.000140418 0.00015047 8.41235e-05 0.000100666 6.83191e-05 8.41235e-05 5.90014e-06 2.87348e-05 8.41235e-05 0.000100666 2.87348e-05 5.15659e-05 0.00015047 0.000161352 0.000100666 0.000117589 0.000161352 0.000172686 0.000117589 0.000134573 0.000100666 0.000117589 5.15659e-05 7.42033e-05 0.000117589 0.000134573 7.42033e-05 9.64252e-05 0.00031869 0.000297006 0.000314118 0.000296215 0.000297006 0.000280247 0.000296215 0.000282358 0.000314118 0.000296215 0.000298373 0.000285853 0.000296215 0.000282358 0.000285853 0.000276341 0.000280247 0.000267798 0.000282358 0.000272074 0.000267798 0.000259125 0.000272074 0.000264904 0.000282358 0.000272074 0.000276341 0.00026959 0.000272074 0.000264904 0.00026959 0.000265294 0.000298373 0.000285853 0.000274147 0.000267781 0.000285853 0.000276341 0.000267781 0.000263451 0.000274147 0.000267781 0.00024389 0.000243793 0.000267781 0.000263451 0.000243793 0.000244945 0.000276341 0.00026959 0.000263451 0.00026108 0.00026959 0.000265294 0.00026108 0.000260487 0.000263451 0.00026108 0.000244945 0.000247325 0.00026108 0.000260487 0.000247325 0.00025081 0.000259125 0.000253663 0.000264904 0.000260375 0.000253663 0.00025072 0.000260375 0.000257977 0.000264904 0.000260375 0.000265294 0.0002631 0.000260375 0.000257977 0.0002631 0.000262603 0.00025072 0.000249466 0.000257977 0.000257161 0.000249466 0.000249202 0.000257161 0.000257264 0.000257977 0.000257161 0.000262603 0.000263288 0.000257161 0.000257264 0.000263288 0.000264374 0.000265294 0.0002631 0.000260487 0.000261406 0.0002631 0.000262603 0.000261406 0.000263479 0.000260487 0.000261406 0.00025081 0.000255183 0.000261406 0.000263479 0.000255183 0.000260113 0.000262603 0.000263288 0.000263479 0.000266184 0.000263288 0.000264374 0.000266184 0.000268659 0.000263479 0.000266184 0.000260113 0.000265087 0.000266184 0.000268659 0.000265087 0.000269294 0.00024389 0.000243793 0.000209559 0.000215487 0.000243793 0.000244945 0.000215487 0.00022205 0.000209559 0.000215487 0.000172686 0.000184261 0.000215487 0.00022205 0.000184261 0.000195951 0.000244945 0.000247325 0.00022205 0.000229195 0.000247325 0.00025081 0.000229195 0.000236808 0.00022205 0.000229195 0.000195951 0.000207652 0.000229195 0.000236808 0.000207652 0.000219234 0.000172686 0.000184261 0.000134573 0.000151373 0.000184261 0.000195951 0.000151373 0.000167807 0.000134573 0.000151373 9.64252e-05 0.000118008 0.000151373 0.000167807 0.000118008 0.000138758 0.000195951 0.000207652 0.000167807 0.000183732 0.000207652 0.000219234 0.000183732 0.000199 0.000167807 0.000183732 0.000138758 0.000158513 0.000183732 0.000199 0.000158513 0.000177125 0.00025081 0.000255183 0.000236808 0.000244692 0.000255183 0.000260113 0.000244692 0.000252543 0.000236808 0.000244692 0.000219234 0.000230509 0.000244692 0.000252543 0.000230509 0.000241218 0.000260113 0.000265087 0.000252543 0.000259906 0.000265087 0.000269294 0.000259906 0.000266107 0.000252543 0.000259906 0.000241218 0.000251001 0.000259906 0.000266107 0.000251001 0.000259367 0.000219234 0.000230509 0.000199 0.000213445 0.000230509 0.000241218 0.000213445 0.000226866 0.000199 0.000213445 0.000177125 0.000194458 0.000213445 0.000226866 0.000194458 0.000210392 0.000241218 0.000251001 0.000226866 0.000239026 0.000251001 0.000259367 0.000239026 0.000249642 0.000226866 0.000239026 0.000210392 0.000224824 0.000239026 0.000249642 0.000224824 0.000237688 -8.68111e-05 -6.27723e-05 -0.00017963 -0.000146467 -6.27723e-05 -3.96201e-05 -0.000146467 -0.000114651 -0.00017963 -0.000146467 -0.000263909 -0.000223045 -0.000146467 -0.000114651 -0.000223045 -0.000183695 -3.96201e-05 -1.68501e-05 -0.000114651 -8.3804e-05 -1.68501e-05 5.90014e-06 -8.3804e-05 -5.36992e-05 -0.000114651 -8.3804e-05 -0.000183695 -0.000145699 -8.3804e-05 -5.36992e-05 -0.000145699 -0.000108951 -0.000263909 -0.000223045 -0.000338169 -0.000290905 -0.000223045 -0.000183695 -0.000290905 -0.000245261 -0.000338169 -0.000290905 -0.000401071 -0.000348669 -0.000290905 -0.000245261 -0.000348669 -0.000297961 -0.000183695 -0.000145699 -0.000245261 -0.000201173 -0.000145699 -0.000108951 -0.000201173 -0.000158616 -0.000245261 -0.000201173 -0.000297961 -0.000249028 -0.000201173 -0.000158616 -0.000249028 -0.000201613 5.90014e-06 2.87348e-05 -5.36992e-05 -2.42573e-05 2.87348e-05 5.15659e-05 -2.42573e-05 4.47652e-06 -5.36992e-05 -2.42573e-05 -0.000108951 -7.34701e-05 -2.42573e-05 4.47652e-06 -7.34701e-05 -3.93373e-05 5.15659e-05 7.42033e-05 4.47652e-06 3.24102e-05 7.42033e-05 9.64252e-05 3.24102e-05 5.94105e-05 4.47652e-06 3.24102e-05 -3.93373e-05 -6.62185e-06 3.24102e-05 5.94105e-05 -6.62185e-06 2.46458e-05 -0.000108951 -7.34701e-05 -0.000158616 -0.000117704 -7.34701e-05 -3.93373e-05 -0.000117704 -7.87436e-05 -0.000158616 -0.000117704 -0.000201613 -0.000155955 -0.000117704 -7.87436e-05 -0.000155955 -0.000112649 -3.93373e-05 -6.62185e-06 -7.87436e-05 -4.18133e-05 -6.62185e-06 2.46458e-05 -4.18133e-05 -6.84639e-06 -7.87436e-05 -4.18133e-05 -0.000112649 -7.22572e-05 -4.18133e-05 -6.84639e-06 -7.22572e-05 -3.41002e-05 -0.000401071 -0.000348669 -0.000451425 -0.000394909 -0.000348669 -0.000297961 -0.000394909 -0.00034015 -0.000451425 -0.000394909 -0.000488268 -0.000428418 -0.000394909 -0.00034015 -0.000428418 -0.000370141 -0.000297961 -0.000249028 -0.00034015 -0.000287711 -0.000249028 -0.000201613 -0.000287711 -0.000237127 -0.00034015 -0.000287711 -0.000370141 -0.000314624 -0.000287711 -0.000237127 -0.000314624 -0.000263489 -0.000201613 -0.000155955 -0.000237127 -0.000187105 -0.000155955 -0.000112649 -0.000187105 -0.000140359 -0.000237127 -0.000187105 -0.000263489 -0.000212545 -0.000187105 -0.000140359 -0.000212545 -0.000160551 -0.000112649 -7.22572e-05 -0.000140359 -9.69805e-05 -7.22572e-05 -3.41002e-05 -9.69805e-05 -5.64256e-05 -0.000140359 -9.69805e-05 -0.000160551 -0.000117304 -9.69805e-05 -5.64256e-05 -0.000117304 -7.1134e-05 -0.000160551 -0.000117304 -0.00017856 -0.000120717 -0.000117304 -7.1134e-05 -0.000120717 -7.62384e-05 -0.00017856 -0.000120717 -0.000140272 -0.000109768 -0.000120717 -7.62384e-05 -0.000109768 -7.60476e-05 9.64252e-05 0.000118008 5.94105e-05 8.53073e-05 0.000118008 0.000138758 8.53073e-05 0.000109921 5.94105e-05 8.53073e-05 2.46458e-05 5.43652e-05 8.53073e-05 0.000109921 5.43652e-05 8.23874e-05 0.000138758 0.000158513 0.000109921 0.000133088 0.000158513 0.000177125 0.000133088 0.000154672 0.000109921 0.000133088 8.23874e-05 0.000108542 0.000133088 0.000154672 0.000108542 0.000132714 2.46458e-05 5.43652e-05 -6.84639e-06 2.62204e-05 5.43652e-05 8.23874e-05 2.62204e-05 5.72028e-05 -6.84639e-06 2.62204e-05 -3.41002e-05 1.84233e-06 2.62204e-05 5.72028e-05 1.84233e-06 3.54063e-05 8.23874e-05 0.000108542 5.72028e-05 8.59248e-05 0.000108542 0.000132714 8.59248e-05 0.000112283 5.72028e-05 8.59248e-05 3.54063e-05 6.62238e-05 8.59248e-05 0.000112283 6.62238e-05 9.43288e-05 0.000177125 0.000194458 0.000154672 0.000174583 0.000194458 0.000210392 0.000174583 0.00019279 0.000154672 0.000174583 0.000132714 0.00015487 0.000174583 0.00019279 0.00015487 0.000175082 0.000210392 0.000224824 0.00019279 0.000209337 0.000224824 0.000237688 0.000209337 0.000224364 0.00019279 0.000209337 0.000175082 0.000193537 0.000209337 0.000224364 0.000193537 0.000210573 0.000132714 0.00015487 0.000112283 0.000136331 0.00015487 0.000175082 0.000136331 0.000158251 0.000112283 0.000136331 9.43288e-05 0.000119889 0.000136331 0.000158251 0.000119889 0.000143198 0.000175082 0.000193537 0.000158251 0.00017837 0.000193537 0.000210573 0.00017837 0.000197197 0.000158251 0.00017837 0.000143198 0.000164702 0.00017837 0.000197197 0.000164702 0.000185053 -3.41002e-05 1.84233e-06 -5.64256e-05 -1.75301e-05 1.84233e-06 3.54063e-05 -1.75301e-05 1.79885e-05 -5.64256e-05 -1.75301e-05 -7.1134e-05 -3.06782e-05 -1.75301e-05 1.79885e-05 -3.06782e-05 5.71075e-06 3.54063e-05 6.62238e-05 1.79885e-05 5.03047e-05 6.62238e-05 9.43288e-05 5.03047e-05 7.96591e-05 1.79885e-05 5.03047e-05 5.71075e-06 3.87855e-05 5.03047e-05 7.96591e-05 3.87855e-05 6.88711e-05 -7.1134e-05 -3.06782e-05 -7.62384e-05 -3.73234e-05 -3.06782e-05 5.71075e-06 -3.73234e-05 -1.27472e-06 -7.62384e-05 -3.73234e-05 -7.60476e-05 -3.90142e-05 -3.73234e-05 -1.27472e-06 -3.90142e-05 -3.47677e-06 5.71075e-06 3.87855e-05 -1.27472e-06 3.19204e-05 3.87855e-05 6.88711e-05 3.19204e-05 6.23121e-05 -1.27472e-06 3.19204e-05 -3.47677e-06 2.96594e-05 3.19204e-05 6.23121e-05 2.96594e-05 6.0117e-05 9.43288e-05 0.000119889 7.96591e-05 0.00010633 0.000119889 0.000143198 0.00010633 0.000130691 7.96591e-05 0.00010633 6.88711e-05 9.62564e-05 0.00010633 0.000130691 9.62564e-05 0.000121337 0.000143198 0.000164702 0.000130691 0.000153279 0.000164702 0.000185053 0.000153279 0.000174847 0.000130691 0.000153279 0.000121337 0.000144695 0.000153279 0.000174847 0.000144695 0.000167148 6.88711e-05 9.62564e-05 6.23121e-05 9.00706e-05 9.62564e-05 0.000121337 9.00706e-05 0.000115562 6.23121e-05 9.00706e-05 6.0117e-05 8.7987e-05 9.00706e-05 0.000115562 8.7987e-05 0.00011361 0.000121337 0.000144695 0.000115562 0.000139377 0.000144695 0.000167148 0.000139377 0.000162365 0.000115562 0.000139377 0.00011361 0.000137577 0.000139377 0.000162365 0.000137577 0.000160744 -0.000647897 -0.000629354 -0.000640722 -0.000622161 -0.000629354 -0.000608081 -0.000622161 -0.000600962 -0.000640722 -0.000622161 -0.000619162 -0.000600582 -0.000622161 -0.000600962 -0.000600582 -0.000579638 -0.000608081 -0.000585448 -0.000600962 -0.000578488 -0.000585448 -0.000562565 -0.000578488 -0.000555839 -0.000600962 -0.000578488 -0.000579638 -0.000557674 -0.000578488 -0.000555839 -0.000557674 -0.000535744 -0.000619162 -0.000600582 -0.000583147 -0.000564649 -0.000600582 -0.000579638 -0.000564649 -0.000544237 -0.000583147 -0.000564649 -0.000532613 -0.000514458 -0.000564649 -0.000544237 -0.000514458 -0.000494997 -0.000579638 -0.000557674 -0.000544237 -0.000523209 -0.000557674 -0.000535744 -0.000523209 -0.000502529 -0.000544237 -0.000523209 -0.000494997 -0.00047545 -0.000523209 -0.000502529 -0.00047545 -0.000456648 -0.000532613 -0.000514458 -0.00046757 -0.000450224 -0.000514458 -0.000494997 -0.000450224 -0.000432332 -0.00046757 -0.000450224 -0.000388054 -0.000372282 -0.000450224 -0.000432332 -0.000372282 -0.000357048 -0.000494997 -0.00047545 -0.000432332 -0.000415001 -0.00047545 -0.000456648 -0.000415001 -0.000398814 -0.000432332 -0.000415001 -0.000357048 -0.000342796 -0.000415001 -0.000398814 -0.000342796 -0.000330039 -0.000357048 -0.000342796 -0.000270245 -0.000260021 -0.000342796 -0.000330039 -0.000260021 -0.000251699 -0.000270245 -0.000260021 -0.000173113 -0.000168317 -0.000260021 -0.000251699 -0.000168317 -0.000165549 -0.000173113 -0.000168317 -6.78219e-05 -6.98497e-05 -0.000168317 -0.000165549 -6.98497e-05 -7.37441e-05 -6.78219e-05 -6.98497e-05 4.31431e-05 3.28997e-05 -6.98497e-05 -7.37441e-05 3.28997e-05 2.10218e-05 -0.000562565 -0.000540272 -0.000555839 -0.00053383 -0.000540272 -0.00051916 -0.00053383 -0.000513023 -0.000555839 -0.00053383 -0.000535744 -0.000514589 -0.00053383 -0.000513023 -0.000514589 -0.000494704 -0.00051916 -0.000499609 -0.000513023 -0.00049378 -0.000499609 -0.000481784 -0.00049378 -0.000476246 -0.000513023 -0.00049378 -0.000494704 -0.00047639 -0.00049378 -0.000476246 -0.00047639 -0.000459739 -0.000535744 -0.000514589 -0.000502529 -0.000482833 -0.000514589 -0.000494704 -0.000482833 -0.000464508 -0.000502529 -0.000482833 -0.000456648 -0.000439076 -0.000482833 -0.000464508 -0.000439076 -0.00042298 -0.000494704 -0.00047639 -0.000464508 -0.000447754 -0.00047639 -0.000459739 -0.000447754 -0.000432585 -0.000464508 -0.000447754 -0.00042298 -0.000408428 -0.000447754 -0.000432585 -0.000408428 -0.00039535 -0.000481784 -0.000465713 -0.000476246 -0.000460444 -0.000465713 -0.000451324 -0.000460444 -0.000446291 -0.000476246 -0.000460444 -0.000459739 -0.000444746 -0.000460444 -0.000446291 -0.000444746 -0.000431307 -0.000451324 -0.000438445 -0.000446291 -0.000433614 -0.000438445 -0.00042683 -0.000433614 -0.000422165 -0.000446291 -0.000433614 -0.000431307 -0.000419237 -0.000433614 -0.000422165 -0.000419237 -0.000408286 -0.000459739 -0.000444746 -0.000432585 -0.00041895 -0.000444746 -0.000431307 -0.00041895 -0.000406708 -0.000432585 -0.00041895 -0.00039535 -0.000383624 -0.00041895 -0.000406708 -0.000383624 -0.000373063 -0.000431307 -0.000419237 -0.000406708 -0.000395655 -0.000419237 -0.000408286 -0.000395655 -0.000385543 -0.000406708 -0.000395655 -0.000373063 -0.000363442 -0.000395655 -0.000385543 -0.000363442 -0.000354516 -0.000456648 -0.000439076 -0.000398814 -0.000384092 -0.000439076 -0.00042298 -0.000384092 -0.000370936 -0.000398814 -0.000384092 -0.000330039 -0.000318979 -0.000384092 -0.000370936 -0.000318979 -0.000309494 -0.00042298 -0.000408428 -0.000370936 -0.000359246 -0.000408428 -0.00039535 -0.000359246 -0.000348868 -0.000370936 -0.000359246 -0.000309494 -0.000301344 -0.000359246 -0.000348868 -0.000301344 -0.000294265 -0.000330039 -0.000318979 -0.000251699 -0.000245173 -0.000318979 -0.000309494 -0.000245173 -0.000240121 -0.000251699 -0.000245173 -0.000165549 -0.000164472 -0.000245173 -0.000240121 -0.000164472 -0.00016465 -0.000309494 -0.000301344 -0.000240121 -0.000236183 -0.000301344 -0.000294265 -0.000236183 -0.000232969 -0.000240121 -0.000236183 -0.00016465 -0.000165556 -0.000236183 -0.000232969 -0.000165556 -0.000166699 -0.00039535 -0.000383624 -0.000348868 -0.000339596 -0.000383624 -0.000373063 -0.000339596 -0.000331192 -0.000348868 -0.000339596 -0.000294265 -0.000287968 -0.000339596 -0.000331192 -0.000287968 -0.000282172 -0.000373063 -0.000363442 -0.000331192 -0.000323413 -0.000363442 -0.000354516 -0.000323413 -0.000316017 -0.000331192 -0.000323413 -0.000282172 -0.00027662 -0.000323413 -0.000316017 -0.00027662 -0.000271084 -0.000294265 -0.000287968 -0.000232969 -0.00023012 -0.000287968 -0.000282172 -0.00023012 -0.00022733 -0.000232969 -0.00023012 -0.000166699 -0.00016769 -0.00023012 -0.00022733 -0.00016769 -0.000168222 -0.000282172 -0.00027662 -0.00022733 -0.000224346 -0.00027662 -0.000271084 -0.000224346 -0.000220964 -0.00022733 -0.000224346 -0.000168222 -0.000168072 -0.000224346 -0.000220964 -0.000168072 -0.000167078 -0.00042683 -0.000416169 -0.000422165 -0.000411636 -0.000416169 -0.000406093 -0.000411636 -0.000401664 -0.000422165 -0.000411636 -0.000408286 -0.000398157 -0.000411636 -0.000401664 -0.000398157 -0.0003885 -0.000406093 -0.000396169 -0.000401664 -0.000391824 -0.000396169 -0.000385894 -0.000391824 -0.000381622 -0.000401664 -0.000391824 -0.0003885 -0.000378913 -0.000391824 -0.000381622 -0.000378913 -0.000368931 -0.000408286 -0.000398157 -0.000385543 -0.000376088 -0.000398157 -0.0003885 -0.000376088 -0.000366965 -0.000385543 -0.000376088 -0.000354516 -0.000346018 -0.000376088 -0.000366965 -0.000346018 -0.00033766 -0.0003885 -0.000378913 -0.000366965 -0.00035781 -0.000378913 -0.000368931 -0.00035781 -0.000348202 -0.000366965 -0.00035781 -0.00033766 -0.000329125 -0.00035781 -0.000348202 -0.000329125 -0.000320055 -0.000385894 -0.000374678 -0.000381622 -0.000370479 -0.000374678 -0.000361824 -0.000370479 -0.000357714 -0.000381622 -0.000370479 -0.000368931 -0.00035801 -0.000370479 -0.000357714 -0.00035801 -0.00034551 -0.000361824 -0.000346506 -0.000357714 -0.000342515 -0.000346506 -0.000327731 -0.000342515 -0.000323909 -0.000357714 -0.000342515 -0.00034551 -0.000330668 -0.000342515 -0.000323909 -0.000330668 -0.000312566 -0.000368931 -0.00035801 -0.000348202 -0.000337656 -0.00035801 -0.00034551 -0.000337656 -0.000325597 -0.000348202 -0.000337656 -0.000320055 -0.00031004 -0.000337656 -0.000325597 -0.00031004 -0.000298594 -0.00034551 -0.000330668 -0.000325597 -0.00031134 -0.000330668 -0.000312566 -0.00031134 -0.000294061 -0.000325597 -0.00031134 -0.000298594 -0.000285139 -0.00031134 -0.000294061 -0.000285139 -0.000268975 -0.000354516 -0.000346018 -0.000316017 -0.000308763 -0.000346018 -0.00033766 -0.000308763 -0.000301408 -0.000316017 -0.000308763 -0.000271084 -0.000265356 -0.000308763 -0.000301408 -0.000265356 -0.000259241 -0.00033766 -0.000329125 -0.000301408 -0.000293693 -0.000329125 -0.000320055 -0.000293693 -0.000285334 -0.000301408 -0.000293693 -0.000259241 -0.000252549 -0.000293693 -0.000285334 -0.000252549 -0.000245078 -0.000271084 -0.000265356 -0.000220964 -0.000217017 -0.000265356 -0.000259241 -0.000217017 -0.000212371 -0.000220964 -0.000217017 -0.000167078 -0.00016513 -0.000217017 -0.000212371 -0.00016513 -0.000162151 -0.000259241 -0.000252549 -0.000212371 -0.000206901 -0.000252549 -0.000245078 -0.000206901 -0.000200493 -0.000212371 -0.000206901 -0.000162151 -0.000158089 -0.000206901 -0.000200493 -0.000158089 -0.000152907 -0.000320055 -0.00031004 -0.000285334 -0.000276009 -0.00031004 -0.000298594 -0.000276009 -0.000265343 -0.000285334 -0.000276009 -0.000245078 -0.000236604 -0.000276009 -0.000265343 -0.000236604 -0.000226873 -0.000298594 -0.000285139 -0.000265343 -0.000252886 -0.000285139 -0.000268975 -0.000252886 -0.000238093 -0.000265343 -0.000252886 -0.000226873 -0.000215584 -0.000252886 -0.000238093 -0.000215584 -0.000202372 -0.000245078 -0.000236604 -0.000200493 -0.000193024 -0.000236604 -0.000226873 -0.000193024 -0.000184368 -0.000200493 -0.000193024 -0.000152907 -0.000146585 -0.000193024 -0.000184368 -0.000146585 -0.00013912 -0.000226873 -0.000215584 -0.000184368 -0.000174383 -0.000215584 -0.000202372 -0.000174383 -0.000162909 -0.000184368 -0.000174383 -0.00013912 -0.000130538 -0.000174383 -0.000162909 -0.000130538 -0.000120894 -0.0001