# vtk DataFile Version 3.0
#This file was generated by the deal.II library on 2022/11/17 at 0:26:21
ASCII
DATASET UNSTRUCTURED_GRID

POINTS 8416 double
0 0.5 0
0.03125 0.5 0
0 0.53125 0
0.03125 0.53125 0
0.03125 0.5 0
0.0625 0.5 0
0.03125 0.53125 0
0.0625 0.53125 0
0 0.53125 0
0.03125 0.53125 0
0 0.5625 0
0.03125 0.5625 0
0.03125 0.53125 0
0.0625 0.53125 0
0.03125 0.5625 0
0.0625 0.5625 0
0.0625 0.5 0
0.09375 0.5 0
0.0625 0.53125 0
0.09375 0.53125 0
0.09375 0.5 0
0.125 0.5 0
0.09375 0.53125 0
0.125 0.53125 0
0.0625 0.53125 0
0.09375 0.53125 0
0.0625 0.5625 0
0.09375 0.5625 0
0.09375 0.53125 0
0.125 0.53125 0
0.09375 0.5625 0
0.125 0.5625 0
0 0.5625 0
0.03125 0.5625 0
0 0.59375 0
0.03125 0.59375 0
0.03125 0.5625 0
0.0625 0.5625 0
0.03125 0.59375 0
0.0625 0.59375 0
0 0.59375 0
0.03125 0.59375 0
0 0.625 0
0.03125 0.625 0
0.03125 0.59375 0
0.0625 0.59375 0
0.03125 0.625 0
0.0625 0.625 0
0.0625 0.5625 0
0.09375 0.5625 0
0.0625 0.59375 0
0.09375 0.59375 0
0.09375 0.5625 0
0.125 0.5625 0
0.09375 0.59375 0
0.125 0.59375 0
0.0625 0.59375 0
0.09375 0.59375 0
0.0625 0.625 0
0.09375 0.625 0
0.09375 0.59375 0
0.125 0.59375 0
0.09375 0.625 0
0.125 0.625 0
0.125 0.5 0
0.15625 0.5 0
0.125 0.53125 0
0.15625 0.53125 0
0.15625 0.5 0
0.1875 0.5 0
0.15625 0.53125 0
0.1875 0.53125 0
0.125 0.53125 0
0.15625 0.53125 0
0.125 0.5625 0
0.15625 0.5625 0
0.15625 0.53125 0
0.1875 0.53125 0
0.15625 0.5625 0
0.1875 0.5625 0
0 0.625 0
0.03125 0.625 0
0 0.65625 0
0.03125 0.65625 0
0.03125 0.625 0
0.0625 0.625 0
0.03125 0.65625 0
0.0625 0.65625 0
0 0.65625 0
0.03125 0.65625 0
0 0.6875 0
0.03125 0.6875 0
0.03125 0.65625 0
0.0625 0.65625 0
0.03125 0.6875 0
0.0625 0.6875 0
0.4375 0.75 0
0.46875 0.75 0
0.4375 0.78125 0
0.46875 0.78125 0
0.46875 0.75 0
0.5 0.75 0
0.46875 0.78125 0
0.5 0.78125 0
0.4375 0.78125 0
0.46875 0.78125 0
0.4375 0.8125 0
0.46875 0.8125 0
0.46875 0.78125 0
0.5 0.78125 0
0.46875 0.8125 0
0.5 0.8125 0
0.375 0.8125 0
0.40625 0.8125 0
0.375 0.84375 0
0.40625 0.84375 0
0.40625 0.8125 0
0.4375 0.8125 0
0.40625 0.84375 0
0.4375 0.84375 0
0.375 0.84375 0
0.40625 0.84375 0
0.375 0.875 0
0.40625 0.875 0
0.40625 0.84375 0
0.4375 0.84375 0
0.40625 0.875 0
0.4375 0.875 0
0.4375 0.8125 0
0.46875 0.8125 0
0.4375 0.84375 0
0.46875 0.84375 0
0.46875 0.8125 0
0.5 0.8125 0
0.46875 0.84375 0
0.5 0.84375 0
0.4375 0.84375 0
0.46875 0.84375 0
0.4375 0.875 0
0.46875 0.875 0
0.46875 0.84375 0
0.5 0.84375 0
0.46875 0.875 0
0.5 0.875 0
0.3125 0.875 0
0.34375 0.875 0
0.3125 0.90625 0
0.34375 0.90625 0
0.34375 0.875 0
0.375 0.875 0
0.34375 0.90625 0
0.375 0.90625 0
0.3125 0.90625 0
0.34375 0.90625 0
0.3125 0.9375 0
0.34375 0.9375 0
0.34375 0.90625 0
0.375 0.90625 0
0.34375 0.9375 0
0.375 0.9375 0
0.375 0.875 0
0.40625 0.875 0
0.375 0.90625 0
0.40625 0.90625 0
0.40625 0.875 0
0.4375 0.875 0
0.40625 0.90625 0
0.4375 0.90625 0
0.375 0.90625 0
0.40625 0.90625 0
0.375 0.9375 0
0.40625 0.9375 0
0.40625 0.90625 0
0.4375 0.90625 0
0.40625 0.9375 0
0.4375 0.9375 0
0.4375 0.875 0
0.46875 0.875 0
0.4375 0.90625 0
0.46875 0.90625 0
0.46875 0.875 0
0.5 0.875 0
0.46875 0.90625 0
0.5 0.90625 0
0.4375 0.90625 0
0.46875 0.90625 0
0.4375 0.9375 0
0.46875 0.9375 0
0.46875 0.90625 0
0.5 0.90625 0
0.46875 0.9375 0
0.5 0.9375 0
0.375 0.9375 0
0.40625 0.9375 0
0.375 0.96875 0
0.40625 0.96875 0
0.40625 0.9375 0
0.4375 0.9375 0
0.40625 0.96875 0
0.4375 0.96875 0
0.375 0.96875 0
0.40625 0.96875 0
0.375 1 0
0.40625 1 0
0.40625 0.96875 0
0.4375 0.96875 0
0.40625 1 0
0.4375 1 0
0.4375 0.9375 0
0.46875 0.9375 0
0.4375 0.96875 0
0.46875 0.96875 0
0.46875 0.9375 0
0.5 0.9375 0
0.46875 0.96875 0
0.5 0.96875 0
0.4375 0.96875 0
0.46875 0.96875 0
0.4375 1 0
0.46875 1 0
0.46875 0.96875 0
0.5 0.96875 0
0.46875 1 0
0.5 1 0
0.5625 0.5 0
0.59375 0.5 0
0.5625 0.53125 0
0.59375 0.53125 0
0.59375 0.5 0
0.625 0.5 0
0.59375 0.53125 0
0.625 0.53125 0
0.5625 0.53125 0
0.59375 0.53125 0
0.5625 0.5625 0
0.59375 0.5625 0
0.59375 0.53125 0
0.625 0.53125 0
0.59375 0.5625 0
0.625 0.5625 0
0.5625 0.5625 0
0.59375 0.5625 0
0.5625 0.59375 0
0.59375 0.59375 0
0.59375 0.5625 0
0.625 0.5625 0
0.59375 0.59375 0
0.625 0.59375 0
0.5625 0.59375 0
0.59375 0.59375 0
0.5625 0.625 0
0.59375 0.625 0
0.59375 0.59375 0
0.625 0.59375 0
0.59375 0.625 0
0.625 0.625 0
0.625 0.5 0
0.65625 0.5 0
0.625 0.53125 0
0.65625 0.53125 0
0.65625 0.5 0
0.6875 0.5 0
0.65625 0.53125 0
0.6875 0.53125 0
0.625 0.53125 0
0.65625 0.53125 0
0.625 0.5625 0
0.65625 0.5625 0
0.65625 0.53125 0
0.6875 0.53125 0
0.65625 0.5625 0
0.6875 0.5625 0
0.6875 0.5 0
0.71875 0.5 0
0.6875 0.53125 0
0.71875 0.53125 0
0.71875 0.5 0
0.75 0.5 0
0.71875 0.53125 0
0.75 0.53125 0
0.6875 0.53125 0
0.71875 0.53125 0
0.6875 0.5625 0
0.71875 0.5625 0
0.71875 0.53125 0
0.75 0.53125 0
0.71875 0.5625 0
0.75 0.5625 0
0.625 0.5625 0
0.65625 0.5625 0
0.625 0.59375 0
0.65625 0.59375 0
0.65625 0.5625 0
0.6875 0.5625 0
0.65625 0.59375 0
0.6875 0.59375 0
0.625 0.59375 0
0.65625 0.59375 0
0.625 0.625 0
0.65625 0.625 0
0.65625 0.59375 0
0.6875 0.59375 0
0.65625 0.625 0
0.6875 0.625 0
0.6875 0.5625 0
0.71875 0.5625 0
0.6875 0.59375 0
0.71875 0.59375 0
0.71875 0.5625 0
0.75 0.5625 0
0.71875 0.59375 0
0.75 0.59375 0
0.6875 0.59375 0
0.71875 0.59375 0
0.6875 0.625 0
0.71875 0.625 0
0.71875 0.59375 0
0.75 0.59375 0
0.71875 0.625 0
0.75 0.625 0
0.5625 0.625 0
0.59375 0.625 0
0.5625 0.65625 0
0.59375 0.65625 0
0.59375 0.625 0
0.625 0.625 0
0.59375 0.65625 0
0.625 0.65625 0
0.5625 0.65625 0
0.59375 0.65625 0
0.5625 0.6875 0
0.59375 0.6875 0
0.59375 0.65625 0
0.625 0.65625 0
0.59375 0.6875 0
0.625 0.6875 0
0.5 0.6875 0
0.53125 0.6875 0
0.5 0.71875 0
0.53125 0.71875 0
0.53125 0.6875 0
0.5625 0.6875 0
0.53125 0.71875 0
0.5625 0.71875 0
0.5 0.71875 0
0.53125 0.71875 0
0.5 0.75 0
0.53125 0.75 0
0.53125 0.71875 0
0.5625 0.71875 0
0.53125 0.75 0
0.5625 0.75 0
0.5625 0.6875 0
0.59375 0.6875 0
0.5625 0.71875 0
0.59375 0.71875 0
0.59375 0.6875 0
0.625 0.6875 0
0.59375 0.71875 0
0.625 0.71875 0
0.5625 0.71875 0
0.59375 0.71875 0
0.5625 0.75 0
0.59375 0.75 0
0.59375 0.71875 0
0.625 0.71875 0
0.59375 0.75 0
0.625 0.75 0
0.625 0.625 0
0.65625 0.625 0
0.625 0.65625 0
0.65625 0.65625 0
0.65625 0.625 0
0.6875 0.625 0
0.65625 0.65625 0
0.6875 0.65625 0
0.625 0.65625 0
0.65625 0.65625 0
0.625 0.6875 0
0.65625 0.6875 0
0.65625 0.65625 0
0.6875 0.65625 0
0.65625 0.6875 0
0.6875 0.6875 0
0.6875 0.625 0
0.71875 0.625 0
0.6875 0.65625 0
0.71875 0.65625 0
0.71875 0.625 0
0.75 0.625 0
0.71875 0.65625 0
0.75 0.65625 0
0.6875 0.65625 0
0.71875 0.65625 0
0.6875 0.6875 0
0.71875 0.6875 0
0.71875 0.65625 0
0.75 0.65625 0
0.71875 0.6875 0
0.75 0.6875 0
0.625 0.6875 0
0.65625 0.6875 0
0.625 0.71875 0
0.65625 0.71875 0
0.65625 0.6875 0
0.6875 0.6875 0
0.65625 0.71875 0
0.6875 0.71875 0
0.625 0.71875 0
0.65625 0.71875 0
0.625 0.75 0
0.65625 0.75 0
0.65625 0.71875 0
0.6875 0.71875 0
0.65625 0.75 0
0.6875 0.75 0
0.6875 0.6875 0
0.71875 0.6875 0
0.6875 0.71875 0
0.71875 0.71875 0
0.71875 0.6875 0
0.75 0.6875 0
0.71875 0.71875 0
0.75 0.71875 0
0.6875 0.71875 0
0.71875 0.71875 0
0.6875 0.75 0
0.71875 0.75 0
0.71875 0.71875 0
0.75 0.71875 0
0.71875 0.75 0
0.75 0.75 0
0.75 0.5 0
0.78125 0.5 0
0.75 0.53125 0
0.78125 0.53125 0
0.78125 0.5 0
0.8125 0.5 0
0.78125 0.53125 0
0.8125 0.53125 0
0.75 0.53125 0
0.78125 0.53125 0
0.75 0.5625 0
0.78125 0.5625 0
0.78125 0.53125 0
0.8125 0.53125 0
0.78125 0.5625 0
0.8125 0.5625 0
0.8125 0.5 0
0.84375 0.5 0
0.8125 0.53125 0
0.84375 0.53125 0
0.84375 0.5 0
0.875 0.5 0
0.84375 0.53125 0
0.875 0.53125 0
0.8125 0.53125 0
0.84375 0.53125 0
0.8125 0.5625 0
0.84375 0.5625 0
0.84375 0.53125 0
0.875 0.53125 0
0.84375 0.5625 0
0.875 0.5625 0
0.75 0.5625 0
0.78125 0.5625 0
0.75 0.59375 0
0.78125 0.59375 0
0.78125 0.5625 0
0.8125 0.5625 0
0.78125 0.59375 0
0.8125 0.59375 0
0.75 0.59375 0
0.78125 0.59375 0
0.75 0.625 0
0.78125 0.625 0
0.78125 0.59375 0
0.8125 0.59375 0
0.78125 0.625 0
0.8125 0.625 0
0.8125 0.5625 0
0.84375 0.5625 0
0.8125 0.59375 0
0.84375 0.59375 0
0.84375 0.5625 0
0.875 0.5625 0
0.84375 0.59375 0
0.875 0.59375 0
0.8125 0.59375 0
0.84375 0.59375 0
0.8125 0.625 0
0.84375 0.625 0
0.84375 0.59375 0
0.875 0.59375 0
0.84375 0.625 0
0.875 0.625 0
0.875 0.5 0
0.90625 0.5 0
0.875 0.53125 0
0.90625 0.53125 0
0.90625 0.5 0
0.9375 0.5 0
0.90625 0.53125 0
0.9375 0.53125 0
0.875 0.53125 0
0.90625 0.53125 0
0.875 0.5625 0
0.90625 0.5625 0
0.90625 0.53125 0
0.9375 0.53125 0
0.90625 0.5625 0
0.9375 0.5625 0
0.9375 0.5 0
0.96875 0.5 0
0.9375 0.53125 0
0.96875 0.53125 0
0.96875 0.5 0
1 0.5 0
0.96875 0.53125 0
1 0.53125 0
0.9375 0.53125 0
0.96875 0.53125 0
0.9375 0.5625 0
0.96875 0.5625 0
0.96875 0.53125 0
1 0.53125 0
0.96875 0.5625 0
1 0.5625 0
0.875 0.5625 0
0.90625 0.5625 0
0.875 0.59375 0
0.90625 0.59375 0
0.90625 0.5625 0
0.9375 0.5625 0
0.90625 0.59375 0
0.9375 0.59375 0
0.875 0.59375 0
0.90625 0.59375 0
0.875 0.625 0
0.90625 0.625 0
0.90625 0.59375 0
0.9375 0.59375 0
0.90625 0.625 0
0.9375 0.625 0
0.9375 0.5625 0
0.96875 0.5625 0
0.9375 0.59375 0
0.96875 0.59375 0
0.96875 0.5625 0
1 0.5625 0
0.96875 0.59375 0
1 0.59375 0
0.9375 0.59375 0
0.96875 0.59375 0
0.9375 0.625 0
0.96875 0.625 0
0.96875 0.59375 0
1 0.59375 0
0.96875 0.625 0
1 0.625 0
0.75 0.625 0
0.78125 0.625 0
0.75 0.65625 0
0.78125 0.65625 0
0.78125 0.625 0
0.8125 0.625 0
0.78125 0.65625 0
0.8125 0.65625 0
0.75 0.65625 0
0.78125 0.65625 0
0.75 0.6875 0
0.78125 0.6875 0
0.78125 0.65625 0
0.8125 0.65625 0
0.78125 0.6875 0
0.8125 0.6875 0
0.8125 0.625 0
0.84375 0.625 0
0.8125 0.65625 0
0.84375 0.65625 0
0.84375 0.625 0
0.875 0.625 0
0.84375 0.65625 0
0.875 0.65625 0
0.8125 0.65625 0
0.84375 0.65625 0
0.8125 0.6875 0
0.84375 0.6875 0
0.84375 0.65625 0
0.875 0.65625 0
0.84375 0.6875 0
0.875 0.6875 0
0.75 0.6875 0
0.78125 0.6875 0
0.75 0.71875 0
0.78125 0.71875 0
0.78125 0.6875 0
0.8125 0.6875 0
0.78125 0.71875 0
0.8125 0.71875 0
0.75 0.71875 0
0.78125 0.71875 0
0.75 0.75 0
0.78125 0.75 0
0.78125 0.71875 0
0.8125 0.71875 0
0.78125 0.75 0
0.8125 0.75 0
0.8125 0.6875 0
0.84375 0.6875 0
0.8125 0.71875 0
0.84375 0.71875 0
0.84375 0.6875 0
0.875 0.6875 0
[...]
POINT_DATA 8416
SCALARS x_dis double 1
LOOKUP_TABLE default
0.00114006 0.00107947 0.0011572 0.00109633 0.00107947 0.0010181 0.00109633 0.00103448 0.0011572 0.00109633 0.00116693 0.00110532 0.00109633 0.00103448 0.00110532 0.00104253 0.0010181 0.00095741 0.00103448 0.000973039 0.00095741 0.000898446 0.000973039 0.000912924 0.00103448 0.000973039 0.00104253 0.000979688 0.000973039 0.000912924 0.000979688 0.000917567 0.00116693 0.00110532 0.00116988 0.00110716 0.00110532 0.00104253 0.00110716 0.00104302 0.00116988 0.00110716 0.00116703 0.00110289 0.00110716 0.00104302 0.00110289 0.00103714 0.00104253 0.000979688 0.00104302 0.000978342 0.000979688 0.000917567 0.000978342 0.000913709 0.00104302 0.000978342 0.00103714 0.000970189 0.000978342 0.000913709 0.000970189 0.00090256 0.000898446 0.00084194 0.000912924 0.000854863 0.00084194 0.000788497 0.000854863 0.000799327 0.000912924 0.000854863 0.000917567 0.000856501 0.000854863 0.000799327 0.000856501 0.000797396 0.00116703 0.00110289 0.00115965 0.00109397 0.00110289 0.00103714 0.00109397 0.00102651 0.00115965 0.00109397 0.00114916 0.00108194 0.00109397 0.00102651 0.00108194 0.00101261 -0.000128307 -0.000221673 -0.000157766 -0.00024996 -0.000221673 -0.000307054 -0.00024996 -0.000334728 -0.000157766 -0.00024996 -0.000180463 -0.000271824 -0.00024996 -0.000334728 -0.000271824 -0.000356099 1.69847e-05 -8.34874e-05 -2.05706e-06 -0.000101738 -8.34874e-05 -0.000180463 -0.000101738 -0.000197789 -2.05706e-06 -0.000101738 -1.62484e-05 -0.000115387 -0.000101738 -0.000197789 -0.000115387 -0.00021076 -0.000180463 -0.000271824 -0.000197789 -0.000288458 -0.000271824 -0.000356099 -0.000288458 -0.00037229 -0.000197789 -0.000288458 -0.00021076 -0.000300808 -0.000288458 -0.00037229 -0.000300808 -0.000384254 0.000187179 8.50681e-05 0.000175727 7.40179e-05 8.50681e-05 -1.62484e-05 7.40179e-05 -2.68229e-05 0.000175727 7.40179e-05 0.000167746 6.51264e-05 7.40179e-05 -2.68229e-05 6.51264e-05 -3.44297e-05 -1.62484e-05 -0.000115387 -2.68229e-05 -0.000125487 -0.000115387 -0.00021076 -0.000125487 -0.000220384 -2.68229e-05 -0.000125487 -3.44297e-05 -0.000133791 -0.000125487 -0.000220384 -0.000133791 -0.000226532 -0.00021076 -0.000300808 -0.000220384 -0.000309611 -0.000300808 -0.000384254 -0.000309611 -0.000392704 -0.000220384 -0.000309611 -0.000226532 -0.000315213 -0.000309611 -0.000392704 -0.000315213 -0.00039817 -3.44297e-05 -0.000133791 -4.25254e-05 -0.000135456 -0.000133791 -0.000226532 -0.000135456 -0.000228673 -4.25254e-05 -0.000135456 -2.57113e-05 -0.000130646 -0.000135456 -0.000228673 -0.000130646 -0.000228528 -0.000226532 -0.000315213 -0.000228673 -0.000317938 -0.000315213 -0.00039817 -0.000317938 -0.000401113 -0.000228673 -0.000317938 -0.000228528 -0.000318601 -0.000317938 -0.000401113 -0.000318601 -0.000402013 0.0005793 0.000473433 0.000257896 0.00022424 0.000473433 0.000376106 0.00022424 0.000175886 0.000257896 0.00022424 3.19566e-05 1.59767e-05 0.00022424 0.000175886 1.59767e-05 -7.32211e-06 3.19566e-05 1.59767e-05 -0.00011463 -0.000138875 1.59767e-05 -7.32211e-06 -0.000138875 -0.000157831 -0.00011463 -0.000138875 -0.000219725 -0.000252969 -0.000138875 -0.000157831 -0.000252969 -0.000276041 0.000376106 0.000287763 0.000175886 0.000122159 0.000287763 0.00020775 0.000122159 6.79333e-05 0.000175886 0.000122159 -7.32211e-06 -3.75089e-05 0.000122159 6.79333e-05 -3.75089e-05 -7.15916e-05 0.00020775 0.000135815 6.79333e-05 1.59289e-05 0.000135815 7.20018e-05 1.59289e-05 -3.22164e-05 6.79333e-05 1.59289e-05 -7.15916e-05 -0.000106844 1.59289e-05 -3.22164e-05 -0.000106844 -0.000141225 -7.32211e-06 -3.75089e-05 -0.000157831 -0.000177908 -3.75089e-05 -7.15916e-05 -0.000177908 -0.000200193 -0.000157831 -0.000177908 -0.000276041 -0.000294801 -0.000177908 -0.000200193 -0.000294801 -0.000312397 -7.15916e-05 -0.000106844 -0.000200193 -0.000223925 -0.000106844 -0.000141225 -0.000223925 -0.000247896 -0.000200193 -0.000223925 -0.000312397 -0.000329851 -0.000223925 -0.000247896 -0.000329851 -0.000347136 -0.000219725 -0.000252969 -0.000299011 -0.000339398 -0.000252969 -0.000276041 -0.000339398 -0.000368176 -0.000299011 -0.000339398 -0.00036058 -0.000406277 -0.000339398 -0.000368176 -0.000406277 -0.000440308 -0.000226458 -0.00030073 -0.000271646 -0.000346212 -0.00030073 -0.00036058 -0.000346212 -0.000408557 -0.000271646 -0.000346212 -0.000307054 -0.000382192 -0.000346212 -0.000408557 -0.000382192 -0.000446299 -0.00036058 -0.000406277 -0.000408557 -0.000458409 -0.000406277 -0.000440308 -0.000458409 -0.000496908 -0.000408557 -0.000458409 -0.000446299 -0.000499095 -0.000458409 -0.000496908 -0.000499095 -0.00054124 -0.000276041 -0.000294801 -0.000368176 -0.000389607 -0.000294801 -0.000312397 -0.000389607 -0.000406954 -0.000368176 -0.000389607 -0.000440308 -0.000465623 -0.000389607 -0.000406954 -0.000465623 -0.000484955 -0.000312397 -0.000329851 -0.000406954 -0.00042212 -0.000329851 -0.000347136 -0.00042212 -0.000435963 -0.000406954 -0.00042212 -0.000484955 -0.000500353 -0.00042212 -0.000435963 -0.000500353 -0.000513127 -0.000440308 -0.000465623 -0.000496908 -0.000526176 -0.000465623 -0.000484955 -0.000526176 -0.000548366 -0.000496908 -0.000526176 -0.00054124 -0.000574087 -0.000526176 -0.000548366 -0.000574087 -0.000599293 -0.000484955 -0.000500353 -0.000548366 -0.000565355 -0.000500353 -0.000513127 -0.000565355 -0.000578578 -0.000548366 -0.000565355 -0.000599293 -0.000618461 -0.000565355 -0.000578578 -0.000618461 -0.000632976 7.20018e-05 1.64995e-05 -3.22164e-05 -7.54313e-05 1.64995e-05 -3.04686e-05 -7.54313e-05 -0.000112991 -3.22164e-05 -7.54313e-05 -0.000141225 -0.000173283 -7.54313e-05 -0.000112991 -0.000173283 -0.000201995 -3.04686e-05 -6.8738e-05 -0.000112991 -0.000144427 -6.8738e-05 -9.82961e-05 -0.000144427 -0.000169503 -0.000112991 -0.000144427 -0.000201995 -0.000226647 -0.000144427 -0.000169503 -0.000226647 -0.000246761 -0.000141225 -0.000173283 -0.000247896 -0.000270952 -0.000173283 -0.000201995 -0.000270952 -0.000292139 -0.000247896 -0.000270952 -0.000347136 -0.00036379 -0.000270952 -0.000292139 -0.00036379 -0.00037922 -0.000201995 -0.000226647 -0.000292139 -0.000310703 -0.000226647 -0.000246761 -0.000310703 -0.000326057 -0.000292139 -0.000310703 -0.00037922 -0.000392842 -0.000310703 -0.000326057 -0.000392842 -0.000404123 -9.82961e-05 -0.000119397 -0.000169503 -0.000188212 -0.000119397 -0.000132718 -0.000188212 -0.000200782 -0.000169503 -0.000188212 -0.000246761 -0.000262042 -0.000188212 -0.000200782 -0.000262042 -0.000272348 -0.000132718 -0.000139533 -0.000200782 -0.000207659 -0.000139533 -0.000141671 -0.000207659 -0.00020982 -0.000200782 -0.000207659 -0.000272348 -0.000277776 -0.000207659 -0.00020982 -0.000277776 -0.00027902 -0.000246761 -0.000262042 -0.000326057 -0.000337747 -0.000262042 -0.000272348 -0.000337747 -0.000345454 -0.000326057 -0.000337747 -0.000404123 -0.000412597 -0.000337747 -0.000345454 -0.000412597 -0.000417875 -0.000272348 -0.000277776 -0.000345454 -0.000349074 -0.000277776 -0.00027902 -0.000349074 -0.000348908 -0.000345454 -0.000349074 -0.000417875 -0.000419694 -0.000349074 -0.000348908 -0.000419694 -0.000417942 -0.000347136 -0.00036379 -0.000435963 -0.000448706 -0.00036379 -0.00037922 -0.000448706 -0.000460222 -0.000435963 -0.000448706 -0.000513127 -0.000523991 -0.000448706 -0.000460222 -0.000523991 -0.000533231 -0.00037922 -0.000392842 -0.000460222 -0.000470222 -0.000392842 -0.000404123 -0.000470222 -0.000478346 -0.000460222 -0.000470222 -0.000533231 -0.000540872 -0.000470222 -0.000478346 -0.000540872 -0.00054677 -0.000513127 -0.000523991 -0.000578578 -0.000589021 -0.000523991 -0.000533231 -0.000589021 -0.000597267 -0.000578578 -0.000589021 -0.000632976 -0.000643925 -0.000589021 -0.000597267 -0.000643925 -0.000652069 -0.000533231 -0.000540872 -0.000597267 -0.000603601 -0.000540872 -0.00054677 -0.000603601 -0.000608092 -0.000597267 -0.000603601 -0.000652069 -0.000657886 -0.000603601 -0.000608092 -0.000657886 -0.000661614 -0.000404123 -0.000412597 -0.000478346 -0.000484209 -0.000412597 -0.000417875 -0.000484209 -0.000487424 -0.000478346 -0.000484209 -0.00054677 -0.000550675 -0.000484209 -0.000487424 -0.000550675 -0.000552247 -0.000417875 -0.000419694 -0.000487424 -0.000487607 -0.000419694 -0.000417942 -0.000487607 -0.000484308 -0.000487424 -0.000487607 -0.000552247 -0.000551035 -0.000487607 -0.000484308 -0.000551035 -0.000546373 -0.00054677 -0.000550675 -0.000608092 -0.000610637 -0.000550675 -0.000552247 -0.000610637 -0.000610971 -0.000608092 -0.000610637 -0.000661614 -0.000663291 -0.000610637 -0.000610971 -0.000663291 -0.000662743 -0.000552247 -0.000551035 -0.000610971 -0.000608636 -0.000551035 -0.000546373 -0.000608636 -0.00060288 -0.000610971 -0.000608636 -0.000662743 -0.000659559 -0.000608636 -0.00060288 -0.000659559 -0.000653006 -0.000307054 -0.000382192 -0.000334728 -0.000410313 -0.000382192 -0.000446299 -0.000410313 -0.000475713 -0.000334728 -0.000410313 -0.000356099 -0.000431879 -0.000410313 -0.000475713 -0.000431879 -0.00049831 -0.000446299 -0.000499095 -0.000475713 -0.000530745 -0.000499095 -0.00054124 -0.000530745 -0.00057576 -0.000475713 -0.000530745 -0.00049831 -0.000555071 -0.000530745 -0.00057576 -0.000555071 -0.000602357 -0.000356099 -0.000431879 -0.00037229 -0.000448184 -0.000431879 -0.00049831 -0.000448184 -0.000515358 -0.00037229 -0.000448184 -0.000384254 -0.000460195 -0.000448184 -0.000515358 -0.000460195 -0.000527909 -0.00049831 -0.000555071 -0.000515358 -0.00057345 -0.000555071 -0.000602357 -0.00057345 -0.000622513 -0.000515358 -0.00057345 -0.000527909 -0.000586999 -0.00057345 -0.000622513 -0.000586999 -0.000637421 -0.00054124 -0.000574087 -0.00057576 -0.000611664 -0.000574087 -0.000599293 -0.000611664 -0.00063969 -0.00057576 -0.000611664 -0.000602357 -0.000640784 -0.000611664 -0.00063969 -0.000640784 -0.000671278 -0.000599293 -0.000618461 -0.00063969 -0.000661162 -0.000618461 -0.000632976 -0.000661162 -0.000677337 -0.00063969 -0.000661162 -0.000671278 -0.000694918 -0.000661162 -0.000677337 -0.000694918 -0.000712815 -0.000602357 -0.000640784 -0.000622513 -0.00066297 -0.000640784 -0.000671278 -0.00066297 -0.000695527 -0.000622513 -0.00066297 -0.000637421 -0.000679462 -0.00066297 -0.000695527 -0.000679462 -0.000713672 -0.000671278 -0.000694918 -0.000695527 -0.000721068 -0.000694918 -0.000712815 -0.000721068 -0.000740563 -0.000695527 -0.000721068 -0.000713672 -0.000740784 -0.000721068 -0.000740563 -0.000740784 -0.000761652 -0.000384254 -0.000460195 -0.000392704 -0.000468677 -0.000460195 -0.000527909 -0.000468677 -0.000536787 -0.000392704 -0.000468677 -0.00039817 -0.000474229 -0.000468677 -0.000536787 -0.000474229 -0.000542637 -0.000527909 -0.000586999 -0.000536787 -0.000596607 -0.000586999 -0.000637421 -0.000596607 -0.000648033 -0.000536787 -0.000596607 -0.000542637 -0.000602966 -0.000596607 -0.000648033 -0.000602966 -0.000655084 -0.00039817 -0.000474229 -0.000401113 -0.000477325 -0.000474229 -0.000542637 -0.000477325 -0.000545939 -0.000401113 -0.000477325 -0.000402013 -0.00047831 -0.000477325 -0.000545939 -0.00047831 -0.000547004 -0.000542637 -0.000602966 -0.000545939 -0.000606575 -0.000602966 -0.000655084 -0.000606575 -0.000659101 -0.000545939 -0.000606575 -0.000547004 -0.000607744 -0.000606575 -0.000659101 -0.000607744 -0.000660404 -0.000637421 -0.000679462 -0.000648033 -0.000691258 -0.000679462 -0.000713672 -0.000691258 -0.000726725 -0.000648033 -0.000691258 -0.000655084 -0.000699131 -0.000691258 -0.000726725 -0.000699131 -0.000735477 -0.000713672 -0.000740784 -0.000726725 -0.000755057 -0.000740784 -0.000761652 -0.000755057 -0.000777017 -0.000726725 -0.000755057 -0.000735477 -0.000764676 -0.000755057 -0.000777017 -0.000764676 -0.000787422 -0.000655084 -0.000699131 -0.000659101 -0.000703632 -0.000699131 -0.000735477 -0.000703632 -0.000740499 -0.000659101 -0.000703632 -0.000660404 -0.000705095 -0.000703632 -0.000740499 -0.000705095 -0.000742135 -0.000735477 -0.000764676 -0.000740499 -0.000770214 -0.000764676 -0.000787422 -0.000770214 -0.000793434 -0.000740499 -0.000770214 -0.000742135 -0.000772021 -0.000770214 -0.000793434 -0.000772021 -0.000795399 -0.000632976 -0.000643925 -0.000677337 -0.0006893 -0.000643925 -0.000652069 -0.0006893 -0.000697894 -0.000677337 -0.0006893 -0.000712815 -0.000725996 -0.0006893 -0.000697894 -0.000725996 -0.000735326 -0.000652069 -0.000657886 -0.000697894 -0.000703721 -0.000657886 -0.000661614 -0.000703721 -0.000707148 -0.000697894 -0.000703721 -0.000735326 -0.000741472 -0.000703721 -0.000707148 -0.000741472 -0.000744893 -0.000712815 -0.000725996 -0.000740563 -0.000754966 -0.000725996 -0.000735326 -0.000754966 -0.000765122 -0.000740563 -0.000754966 -0.000761652 -0.000777151 -0.000754966 -0.000765122 -0.000777151 -0.000788096 -0.000735326 -0.000741472 -0.000765122 -0.00077173 -0.000741472 -0.000744893 -0.00077173 -0.000775309 -0.000765122 -0.00077173 -0.000788096 -0.000795191 -0.00077173 -0.000775309 -0.000795191 -0.000798993 -0.000661614 -0.000663291 -0.000707148 -0.000708329 -0.000663291 -0.000662743 -0.000708329 -0.000707189 -0.000707148 -0.000708329 -0.000744893 -0.000745838 -0.000708329 -0.000707189 -0.000745838 -0.000744327 -0.000662743 -0.000659559 -0.000707189 -0.000703404 -0.000659559 -0.000653006 -0.000703404 -0.000696341 -0.000707189 -0.000703404 -0.000744327 -0.000740149 -0.000703404 -0.000696341 -0.000740149 -0.000732823 -0.000744893 -0.000745838 -0.000775309 -0.000776182 -0.000745838 -0.000744327 -0.000776182 -0.000774458 -0.000775309 -0.000776182 -0.000798993 -0.000799884 -0.000776182 -0.000774458 -0.000799884 -0.000798054 -0.000744327 -0.000740149 -0.000774458 -0.000770051 -0.000740149 -0.000732823 -0.000770051 -0.00076265 -0.000774458 -0.000770051 -0.000798054 -0.000793534 -0.000770051 -0.00076265 -0.000793534 -0.000786184 -0.000761652 -0.000777151 -0.000777017 -0.000793413 -0.000777151 -0.000788096 -0.000793413 -0.000805027 -0.000777017 -0.000793413 -0.000787422 -0.000804478 -0.000793413 -0.000805027 -0.000804478 -0.000816593 -0.000788096 -0.000795191 -0.000805027 -0.000812558 -0.000795191 -0.000798993 -0.000812558 -0.000816583 -0.000805027 -0.000812558 -0.000816593 -0.000824459 -0.000812558 -0.000816583 -0.000824459 -0.000828667 -0.000787422 -0.000804478 -0.000793434 -0.00081089 -0.000804478 -0.000816593 -0.00081089 -0.000823314 -0.000793434 -0.00081089 -0.000795399 -0.000812989 -0.00081089 -0.000823314 -0.000812989 -0.000825517 -0.000816593 -0.000824459 -0.000823314 -0.00083139 -0.000824459 -0.000828667 -0.00083139 -0.000835716 -0.000823314 -0.00083139 -0.000825517 -0.000833664 -0.00083139 -0.000835716 -0.000833664 -0.000838031 -0.000798993 -0.000799884 -0.000816583 -0.000817531 -0.000799884 -0.000798054 -0.000817531 -0.000815659 -0.000816583 -0.000817531 -0.000828667 -0.000829677 -0.000817531 -0.000815659 -0.000829677 -0.000827797 -0.000798054 -0.000793534 -0.000815659 -0.000811101 -0.000793534 -0.000786184 -0.000811101 -0.000803865 -0.000815659 -0.000811101 -0.000827797 -0.000823238 -0.000811101 -0.000803865 -0.000823238 -0.000816124 -0.000828667 -0.000829677 -0.000835716 -0.000836771 -0.000829677 -0.000827797 -0.000836771 -0.000834894 -0.000835716 -0.000836771 -0.000838031 -0.000839103 -0.000836771 -0.000834894 -0.000839103 -0.000837227 -0.000827797 -0.000823238 -0.000834894 -0.000830345 -0.000823238 -0.000816124 -0.000830345 -0.000823322 -0.000834894 -0.000830345 -0.000837227 -0.000832683 -0.000830345 -0.000823322 -0.000832683 -0.000825694 0.000135891 6.58253e-05 0.000139984 6.98403e-05 6.58253e-05 -2.93397e-06 6.98403e-05 9.74172e-07 0.000139984 6.98403e-05 0.000152214 8.18577e-05 6.98403e-05 9.74172e-07 8.18577e-05 1.26822e-05 0.000152214 8.18577e-05 0.000172458 0.000101796 8.18577e-05 1.26822e-05 0.000101796 3.2156e-05 0.000172458 0.000101796 0.000200634 0.000129651 0.000101796 3.2156e-05 0.000129651 5.92612e-05 -2.93397e-06 -7.00452e-05 9.74172e-07 -6.62746e-05 -7.00452e-05 -0.000135079 -6.62746e-05 -0.000131473 9.74172e-07 -6.62746e-05 1.26822e-05 -5.49651e-05 -6.62746e-05 -0.000131473 -5.49651e-05 -0.00012065 -0.000135079 -0.000197534 -0.000131473 -0.000194114 -0.000197534 -0.000256854 -0.000194114 -0.000253635 -0.000131473 -0.000194114 -0.00012065 -0.000183845 -0.000194114 -0.000253635 -0.000183845 -0.000243964 1.26822e-05 -5.49651e-05 3.2156e-05 -3.61361e-05 -5.49651e-05 -0.00012065 -3.61361e-05 -0.000102592 3.2156e-05 -3.61361e-05 5.92612e-05 -9.79884e-06 -3.61361e-05 -0.000102592 -9.79884e-06 -7.72724e-05 -0.00012065 -0.000183845 -0.000102592 -0.000166689 -0.000183845 -0.000243964 -0.000166689 -0.000227796 -0.000102592 -0.000166689 -7.72724e-05 -0.00014258 -0.000166689 -0.000227796 -0.00014258 -0.000205043 -0.000256854 -0.000312459 -0.000253635 -0.000309442 -0.000312459 -0.000363767 -0.000309442 -0.000360943 -0.000253635 -0.000309442 -0.000243964 -0.00030038 -0.000309442 -0.000360943 -0.00030038 -0.00035246 -0.000363767 -0.000410223 -0.000360943 -0.000407568 -0.000410223 -0.000451362 -0.000407568 -0.000448839 -0.000360943 -0.000407568 -0.00035246 -0.000399593 -0.000407568 -0.000448839 -0.000399593 -0.000441261 -0.000243964 -0.00030038 -0.000227796 -0.000285227 -0.00030038 -0.00035246 -0.000285227 -0.000338277 -0.000227796 -0.000285227 -0.000205043 -0.000263892 -0.000285227 -0.000338277 -0.000263892 -0.000318316 -0.00035246 -0.000399593 -0.000338277 -0.000386265 -0.000399593 -0.000441261 -0.000386265 -0.000428603 -0.000338277 -0.000386265 -0.000318316 -0.000367521 -0.000386265 -0.000428603 -0.000367521 -0.000410813 5.92612e-05 -9.79884e-06 9.38381e-05 2.39836e-05 -9.79884e-06 -7.72724e-05 2.39836e-05 -4.46464e-05 9.38381e-05 2.39836e-05 0.000135845 6.51693e-05 2.39836e-05 -4.46464e-05 6.51693e-05 -4.64845e-06 -7.72724e-05 -0.00014258 -4.46464e-05 -0.000111411 -0.00014258 -0.000205043 -0.000111411 -0.000175562 -4.46464e-05 -0.000111411 -4.64845e-06 -7.30194e-05 -0.000111411 -0.000175562 -7.30194e-05 -0.000139134 0.000135845 6.51693e-05 0.00018483 0.000113659 6.51693e-05 -4.64845e-06 0.000113659 4.28156e-05 0.00018483 0.000113659 0.000240391 0.000169207 0.000113659 4.28156e-05 0.000169207 9.77821e-05 -4.64845e-06 -7.30194e-05 4.28156e-05 -2.71883e-05 -7.30194e-05 -0.000139134 -2.71883e-05 -9.54235e-05 4.28156e-05 -2.71883e-05 9.77821e-05 2.65562e-05 -2.71883e-05 -9.54235e-05 2.65562e-05 -4.39838e-05 -0.000205043 -0.000263892 -0.000175562 -0.000236222 -0.000263892 -0.000318316 -0.000236222 -0.000292435 -0.000175562 -0.000236222 -0.000139134 -0.000201974 -0.000236222 -0.000292435 -0.000201974 -0.000260406 -0.000318316 -0.000367521 -0.000292435 -0.000343244 -0.000367521 -0.000410813 -0.000343244 -0.000387794 -0.000292435 -0.000343244 -0.000260406 -0.000313236 -0.000343244 -0.000387794 -0.000313236 -0.000359376 -0.000139134 -0.000201974 -9.54235e-05 -0.000160784 -0.000201974 -0.000260406 -0.000160784 -0.000221865 -9.54235e-05 -0.000160784 -4.39838e-05 -0.00011208 -0.000160784 -0.000221865 -0.00011208 -0.000176285 -0.000260406 -0.000313236 -0.000221865 -0.000277179 -0.000313236 -0.000359376 -0.000277179 -0.000325277 -0.000221865 -0.000277179 -0.000176285 -0.000234582 -0.000277179 -0.000325277 -0.000234582 -0.000285056 0.000903143 0.000835727 0.000953233 0.000887469 0.000835727 0.000768356 0.000887469 0.000821658 0.000953233 0.000887469 0.00100099 0.000936888 0.000887469 0.000821658 0.000936888 0.00087256 0.000768356 0.00070123 0.000821658 0.000756184 0.00070123 0.000634409 0.000756184 0.000691282 0.000821658 0.000756184 0.00087256 0.000808724 0.000756184 0.000691282 0.000808724 0.000745825 0.000634409 0.000567842 0.000691282 0.000627015 0.000567842 0.000501378 0.000627015 0.00056324 0.000691282 0.000627015 0.000745825 0.000684072 0.000627015 0.00056324 0.000684072 0.000623459 0.00100099 0.000936888 0.00104485 0.000982204 0.000936888 0.00087256 0.000982204 0.000919187 0.00104485 0.000982204 0.00108336 0.00102184 0.000982204 0.000919187 0.00102184 0.000959826 0.00087256 0.000808724 0.000919187 0.000856828 0.000808724 0.000745825 0.000856828 0.00079579 0.000919187 0.000856828 0.000959826 0.000898595 0.000856828 0.00079579 0.000898595 0.000839011 0.00108336 0.00102184 0.00111535 0.00105454 0.00102184 0.00095982