# vtk DataFile Version 3.0
#This file was generated by the deal.II library on 2022/11/17 at 0:10:50
ASCII
DATASET UNSTRUCTURED_GRID

POINTS 4096 double
0 0.5 0
0.03125 0.5 0
0 0.53125 0
0.03125 0.53125 0
0.03125 0.5 0
0.0625 0.5 0
0.03125 0.53125 0
0.0625 0.53125 0
0 0.53125 0
0.03125 0.53125 0
0 0.5625 0
0.03125 0.5625 0
0.03125 0.53125 0
0.0625 0.53125 0
0.03125 0.5625 0
0.0625 0.5625 0
0.0625 0.5 0
0.09375 0.5 0
0.0625 0.53125 0
0.09375 0.53125 0
0.09375 0.5 0
0.125 0.5 0
0.09375 0.53125 0
0.125 0.53125 0
0.0625 0.53125 0
0.09375 0.53125 0
0.0625 0.5625 0
0.09375 0.5625 0
0.09375 0.53125 0
0.125 0.53125 0
0.09375 0.5625 0
0.125 0.5625 0
0 0.5625 0
0.03125 0.5625 0
0 0.59375 0
0.03125 0.59375 0
0.03125 0.5625 0
0.0625 0.5625 0
0.03125 0.59375 0
0.0625 0.59375 0
0 0.59375 0
0.03125 0.59375 0
0 0.625 0
0.03125 0.625 0
0.03125 0.59375 0
0.0625 0.59375 0
0.03125 0.625 0
0.0625 0.625 0
0.0625 0.5625 0
0.09375 0.5625 0
0.0625 0.59375 0
0.09375 0.59375 0
0.09375 0.5625 0
0.125 0.5625 0
0.09375 0.59375 0
0.125 0.59375 0
0.0625 0.59375 0
0.09375 0.59375 0
0.0625 0.625 0
0.09375 0.625 0
0.09375 0.59375 0
0.125 0.59375 0
0.09375 0.625 0
0.125 0.625 0
0.125 0.5 0
0.15625 0.5 0
0.125 0.53125 0
0.15625 0.53125 0
0.15625 0.5 0
0.1875 0.5 0
0.15625 0.53125 0
0.1875 0.53125 0
0.125 0.53125 0
0.15625 0.53125 0
0.125 0.5625 0
0.15625 0.5625 0
0.15625 0.53125 0
0.1875 0.53125 0
0.15625 0.5625 0
0.1875 0.5625 0
0.1875 0.5 0
0.21875 0.5 0
0.1875 0.53125 0
0.21875 0.53125 0
0.21875 0.5 0
0.25 0.5 0
0.21875 0.53125 0
0.25 0.53125 0
0.1875 0.53125 0
0.21875 0.53125 0
0.1875 0.5625 0
0.21875 0.5625 0
0.21875 0.53125 0
0.25 0.53125 0
0.21875 0.5625 0
0.25 0.5625 0
0.125 0.5625 0
0.15625 0.5625 0
0.125 0.59375 0
0.15625 0.59375 0
0.15625 0.5625 0
0.1875 0.5625 0
0.15625 0.59375 0
0.1875 0.59375 0
0.125 0.59375 0
0.15625 0.59375 0
0.125 0.625 0
0.15625 0.625 0
0.15625 0.59375 0
0.1875 0.59375 0
0.15625 0.625 0
0.1875 0.625 0
0.1875 0.5625 0
0.21875 0.5625 0
0.1875 0.59375 0
0.21875 0.59375 0
0.21875 0.5625 0
0.25 0.5625 0
0.21875 0.59375 0
0.25 0.59375 0
0.1875 0.59375 0
0.21875 0.59375 0
0.1875 0.625 0
0.21875 0.625 0
0.21875 0.59375 0
0.25 0.59375 0
0.21875 0.625 0
0.25 0.625 0
0 0.625 0
0.03125 0.625 0
0 0.65625 0
0.03125 0.65625 0
0.03125 0.625 0
0.0625 0.625 0
0.03125 0.65625 0
0.0625 0.65625 0
0 0.65625 0
0.03125 0.65625 0
0 0.6875 0
0.03125 0.6875 0
0.03125 0.65625 0
0.0625 0.65625 0
0.03125 0.6875 0
0.0625 0.6875 0
0.0625 0.625 0
0.09375 0.625 0
0.0625 0.65625 0
0.09375 0.65625 0
0.09375 0.625 0
0.125 0.625 0
0.09375 0.65625 0
0.125 0.65625 0
0.0625 0.65625 0
0.09375 0.65625 0
0.0625 0.6875 0
0.09375 0.6875 0
0.09375 0.65625 0
0.125 0.65625 0
0.09375 0.6875 0
0.125 0.6875 0
0 0.6875 0
0.03125 0.6875 0
0 0.71875 0
0.03125 0.71875 0
0.03125 0.6875 0
0.0625 0.6875 0
0.03125 0.71875 0
0.0625 0.71875 0
0 0.71875 0
0.03125 0.71875 0
0 0.75 0
0.03125 0.75 0
0.03125 0.71875 0
0.0625 0.71875 0
0.03125 0.75 0
0.0625 0.75 0
0.0625 0.6875 0
0.09375 0.6875 0
0.0625 0.71875 0
0.09375 0.71875 0
0.09375 0.6875 0
0.125 0.6875 0
0.09375 0.71875 0
0.125 0.71875 0
0.0625 0.71875 0
0.09375 0.71875 0
0.0625 0.75 0
0.09375 0.75 0
0.09375 0.71875 0
0.125 0.71875 0
0.09375 0.75 0
0.125 0.75 0
0.125 0.625 0
0.15625 0.625 0
0.125 0.65625 0
0.15625 0.65625 0
0.15625 0.625 0
0.1875 0.625 0
0.15625 0.65625 0
0.1875 0.65625 0
0.125 0.65625 0
0.15625 0.65625 0
0.125 0.6875 0
0.15625 0.6875 0
0.15625 0.65625 0
0.1875 0.65625 0
0.15625 0.6875 0
0.1875 0.6875 0
0.1875 0.625 0
0.21875 0.625 0
0.1875 0.65625 0
0.21875 0.65625 0
0.21875 0.625 0
0.25 0.625 0
0.21875 0.65625 0
0.25 0.65625 0
0.1875 0.65625 0
0.21875 0.65625 0
0.1875 0.6875 0
0.21875 0.6875 0
0.21875 0.65625 0
0.25 0.65625 0
0.21875 0.6875 0
0.25 0.6875 0
0.125 0.6875 0
0.15625 0.6875 0
0.125 0.71875 0
0.15625 0.71875 0
0.15625 0.6875 0
0.1875 0.6875 0
0.15625 0.71875 0
0.1875 0.71875 0
0.125 0.71875 0
0.15625 0.71875 0
0.125 0.75 0
0.15625 0.75 0
0.15625 0.71875 0
0.1875 0.71875 0
0.15625 0.75 0
0.1875 0.75 0
0.1875 0.6875 0
0.21875 0.6875 0
0.1875 0.71875 0
0.21875 0.71875 0
0.21875 0.6875 0
0.25 0.6875 0
0.21875 0.71875 0
0.25 0.71875 0
0.1875 0.71875 0
0.21875 0.71875 0
0.1875 0.75 0
0.21875 0.75 0
0.21875 0.71875 0
0.25 0.71875 0
0.21875 0.75 0
0.25 0.75 0
0.25 0.5 0
0.28125 0.5 0
0.25 0.53125 0
0.28125 0.53125 0
0.28125 0.5 0
0.3125 0.5 0
0.28125 0.53125 0
0.3125 0.53125 0
0.25 0.53125 0
0.28125 0.53125 0
0.25 0.5625 0
0.28125 0.5625 0
0.28125 0.53125 0
0.3125 0.53125 0
0.28125 0.5625 0
0.3125 0.5625 0
0.3125 0.5 0
0.34375 0.5 0
0.3125 0.53125 0
0.34375 0.53125 0
0.34375 0.5 0
0.375 0.5 0
0.34375 0.53125 0
0.375 0.53125 0
0.3125 0.53125 0
0.34375 0.53125 0
0.3125 0.5625 0
0.34375 0.5625 0
0.34375 0.53125 0
0.375 0.53125 0
0.34375 0.5625 0
0.375 0.5625 0
0.25 0.5625 0
0.28125 0.5625 0
0.25 0.59375 0
0.28125 0.59375 0
0.28125 0.5625 0
0.3125 0.5625 0
0.28125 0.59375 0
0.3125 0.59375 0
0.25 0.59375 0
0.28125 0.59375 0
0.25 0.625 0
0.28125 0.625 0
0.28125 0.59375 0
0.3125 0.59375 0
0.28125 0.625 0
0.3125 0.625 0
0.3125 0.5625 0
0.34375 0.5625 0
0.3125 0.59375 0
0.34375 0.59375 0
0.34375 0.5625 0
0.375 0.5625 0
0.34375 0.59375 0
0.375 0.59375 0
0.3125 0.59375 0
0.34375 0.59375 0
0.3125 0.625 0
0.34375 0.625 0
0.34375 0.59375 0
0.375 0.59375 0
0.34375 0.625 0
0.375 0.625 0
0.375 0.5 0
0.40625 0.5 0
0.375 0.53125 0
0.40625 0.53125 0
0.40625 0.5 0
0.4375 0.5 0
0.40625 0.53125 0
0.4375 0.53125 0
0.375 0.53125 0
0.40625 0.53125 0
0.375 0.5625 0
0.40625 0.5625 0
0.40625 0.53125 0
0.4375 0.53125 0
0.40625 0.5625 0
0.4375 0.5625 0
0.4375 0.5 0
0.46875 0.5 0
0.4375 0.53125 0
0.46875 0.53125 0
0.46875 0.5 0
0.5 0.5 0
0.46875 0.53125 0
0.5 0.53125 0
0.4375 0.53125 0
0.46875 0.53125 0
0.4375 0.5625 0
0.46875 0.5625 0
0.46875 0.53125 0
0.5 0.53125 0
0.46875 0.5625 0
0.5 0.5625 0
0.375 0.5625 0
0.40625 0.5625 0
0.375 0.59375 0
0.40625 0.59375 0
0.40625 0.5625 0
0.4375 0.5625 0
0.40625 0.59375 0
0.4375 0.59375 0
0.375 0.59375 0
0.40625 0.59375 0
0.375 0.625 0
0.40625 0.625 0
0.40625 0.59375 0
0.4375 0.59375 0
0.40625 0.625 0
0.4375 0.625 0
0.4375 0.5625 0
0.46875 0.5625 0
0.4375 0.59375 0
0.46875 0.59375 0
0.46875 0.5625 0
0.5 0.5625 0
0.46875 0.59375 0
0.5 0.59375 0
0.4375 0.59375 0
0.46875 0.59375 0
0.4375 0.625 0
0.46875 0.625 0
0.46875 0.59375 0
0.5 0.59375 0
0.46875 0.625 0
0.5 0.625 0
0.25 0.625 0
0.28125 0.625 0
0.25 0.65625 0
0.28125 0.65625 0
0.28125 0.625 0
0.3125 0.625 0
0.28125 0.65625 0
0.3125 0.65625 0
0.25 0.65625 0
0.28125 0.65625 0
0.25 0.6875 0
0.28125 0.6875 0
0.28125 0.65625 0
0.3125 0.65625 0
0.28125 0.6875 0
0.3125 0.6875 0
0.3125 0.625 0
0.34375 0.625 0
0.3125 0.65625 0
0.34375 0.65625 0
0.34375 0.625 0
0.375 0.625 0
0.34375 0.65625 0
0.375 0.65625 0
0.3125 0.65625 0
0.34375 0.65625 0
0.3125 0.6875 0
0.34375 0.6875 0
0.34375 0.65625 0
0.375 0.65625 0
0.34375 0.6875 0
0.375 0.6875 0
0.25 0.6875 0
0.28125 0.6875 0
0.25 0.71875 0
0.28125 0.71875 0
0.28125 0.6875 0
0.3125 0.6875 0
0.28125 0.71875 0
0.3125 0.71875 0
0.25 0.71875 0
0.28125 0.71875 0
0.25 0.75 0
0.28125 0.75 0
0.28125 0.71875 0
0.3125 0.71875 0
0.28125 0.75 0
0.3125 0.75 0
0.3125 0.6875 0
0.34375 0.6875 0
0.3125 0.71875 0
0.34375 0.71875 0
0.34375 0.6875 0
0.375 0.6875 0
0.34375 0.71875 0
0.375 0.71875 0
0.3125 0.71875 0
0.34375 0.71875 0
0.3125 0.75 0
0.34375 0.75 0
0.34375 0.71875 0
0.375 0.71875 0
0.34375 0.75 0
0.375 0.75 0
0.375 0.625 0
0.40625 0.625 0
0.375 0.65625 0
0.40625 0.65625 0
0.40625 0.625 0
0.4375 0.625 0
0.40625 0.65625 0
0.4375 0.65625 0
0.375 0.65625 0
0.40625 0.65625 0
0.375 0.6875 0
0.40625 0.6875 0
0.40625 0.65625 0
0.4375 0.65625 0
0.40625 0.6875 0
0.4375 0.6875 0
0.4375 0.625 0
0.46875 0.625 0
0.4375 0.65625 0
0.46875 0.65625 0
0.46875 0.625 0
0.5 0.625 0
0.46875 0.65625 0
0.5 0.65625 0
0.4375 0.65625 0
0.46875 0.65625 0
0.4375 0.6875 0
0.46875 0.6875 0
0.46875 0.65625 0
0.5 0.65625 0
0.46875 0.6875 0
0.5 0.6875 0
0.375 0.6875 0
0.40625 0.6875 0
0.375 0.71875 0
0.40625 0.71875 0
0.40625 0.6875 0
0.4375 0.6875 0
0.40625 0.71875 0
0.4375 0.71875 0
0.375 0.71875 0
0.40625 0.71875 0
0.375 0.75 0
0.40625 0.75 0
0.40625 0.71875 0
0.4375 0.71875 0
0.40625 0.75 0
0.4375 0.75 0
0.4375 0.6875 0
0.46875 0.6875 0
0.4375 0.71875 0
0.46875 0.71875 0
0.46875 0.6875 0
0.5 0.6875 0
0.46875 0.71875 0
0.5 0.71875 0
0.4375 0.71875 0
0.46875 0.71875 0
0.4375 0.75 0
0.46875 0.75 0
0.46875 0.71875 0
0.5 0.71875 0
0.46875 0.75 0
0.5 0.75 0
0 0.75 0
0.03125 0.75 0
0 0.78125 0
0.03125 0.78125 0
0.03125 0.75 0
0.0625 0.75 0
0.03125 0.78125 0
0.0625 0.78125 0
0 0.78125 0
0.03125 0.78125 0
0 0.8125 0
0.03125 0.8125 0
0.03125 0.78125 0
0.0625 0.78125 0
0.03125 0.8125 0
0.0625 0.8125 0
0.0625 0.75 0
0.09375 0.75 0
0.0625 0.78125 0
0.09375 0.78125 0
0.09375 0.75 0
0.125 0.75 0
0.09375 0.78125 0
0.125 0.78125 0
0.0625 0.78125 0
0.09375 0.78125 0
0.0625 0.8125 0
0.09375 0.8125 0
0.09375 0.78125 0
0.125 0.78125 0
0.09375 0.8125 0
0.125 0.8125 0
0 0.8125 0
0.03125 0.8125 0
0 0.84375 0
0.03125 0.84375 0
0.03125 0.8125 0
0.0625 0.8125 0
0.03125 0.84375 0
0.0625 0.84375 0
0 0.84375 0
0.03125 0.84375 0
0 0.875 0
0.03125 0.875 0
0.03125 0.84375 0
0.0625 0.84375 0
0.03125 0.875 0
0.0625 0.875 0
0.0625 0.8125 0
0.09375 0.8125 0
0.0625 0.84375 0
0.09375 0.84375 0
0.09375 0.8125 0
0.125 0.8125 0
0.09375 0.84375 0
0.125 0.84375 0
0.0625 0.84375 0
0.09375 0.84375 0
0.0625 0.875 0
0.09375 0.875 0
0.09375 0.84375 0
0.125 0.84375 0
0.09375 0.875 0
0.125 0.875 0
0.125 0.75 0
0.15625 0.75 0
0.125 0.78125 0
0.15625 0.78125 0
0.15625 0.75 0
0.1875 0.75 0
0.15625 0.78125 0
0.1875 0.78125 0
0.125 0.78125 0
0.15625 0.78125 0
0.125 0.8125 0
0.15625 0.8125 0
0.15625 0.78125 0
0.1875 0.78125 0
0.15625 0.8125 0
0.1875 0.8125 0
0.1875 0.75 0
0.21875 0.75 0
0.1875 0.78125 0
0.21875 0.78125 0
0.21875 0.75 0
0.25 0.75 0
0.21875 0.78125 0
0.25 0.78125 0
0.1875 0.78125 0
0.21875 0.78125 0
0.1875 0.8125 0
0.21875 0.8125 0
0.21875 0.78125 0
0.25 0.78125 0
0.21875 0.8125 0
0.25 0.8125 0
0.125 0.8125 0
0.15625 0.8125 0
0.125 0.84375 0
0.15625 0.84375 0
0.15625 0.8125 0
[...]
POINT_DATA 4096
SCALARS x_dis double 1
LOOKUP_TABLE default
0.000375043 0.000348355 0.00040172 0.000375319 0.000348355 0.000321064 0.000375319 0.000347884 0.00040172 0.000375319 0.000427166 0.00040111 0.000375319 0.000347884 0.00040111 0.000373608 0.000321064 0.00029348 0.000347884 0.000319728 0.00029348 0.000265976 0.000319728 0.000291222 0.000347884 0.000319728 0.000373608 0.000344966 0.000319728 0.000291222 0.000344966 0.000315526 0.000427166 0.00040111 0.000450888 0.00042519 0.00040111 0.000373608 0.00042519 0.000397684 0.000450888 0.00042519 0.000472497 0.000447125 0.00042519 0.000397684 0.000447125 0.000419665 0.000373608 0.000344966 0.000397684 0.000368653 0.000344966 0.000315526 0.000368653 0.000338392 0.000397684 0.000368653 0.000419665 0.000390356 0.000368653 0.000338392 0.000390356 0.00035943 0.000265976 0.000238971 0.000291222 0.000262786 0.000238971 0.0002129 0.000262786 0.000234863 0.000291222 0.000262786 0.000315526 0.000285671 0.000262786 0.000234863 0.000285671 0.000255811 0.0002129 0.000188191 0.000234863 0.000207895 0.000188191 0.000165234 0.000207895 0.000182285 0.000234863 0.000207895 0.000255811 0.000226349 0.000207895 0.000182285 0.000226349 0.000197636 0.000315526 0.000285671 0.000338392 0.000307221 0.000285671 0.000255811 0.000307221 0.000275483 0.000338392 0.000307221 0.00035943 0.000327133 0.000307221 0.000275483 0.000327133 0.000293725 0.000255811 0.000226349 0.000275483 0.000243508 0.000226349 0.000197636 0.000243508 0.000211568 0.000275483 0.000243508 0.000293725 0.000259453 0.000243508 0.000211568 0.000259453 0.000224511 0.000472497 0.000447125 0.000491748 0.00046665 0.000447125 0.000419665 0.00046665 0.000439272 0.000491748 0.00046665 0.000508575 0.000483688 0.00046665 0.000439272 0.000483688 0.000456417 0.000419665 0.000390356 0.000439272 0.000409797 0.000390356 0.00035943 0.000409797 0.000378391 0.000439272 0.000409797 0.000456417 0.000426881 0.000409797 0.000378391 0.000426881 0.000395178 0.000508575 0.000483688 0.000523069 0.000498333 0.000483688 0.000456417 0.000498333 0.000471182 0.000523069 0.000498333 0.000535425 0.000510795 0.000498333 0.000471182 0.000510795 0.000483764 0.000456417 0.000426881 0.000471182 0.000441667 0.000426881 0.000395178 0.000441667 0.000409832 0.000471182 0.000441667 0.000483764 0.000454328 0.000441667 0.000409832 0.000454328 0.000422488 0.00035943 0.000327133 0.000378391 0.00034522 0.000327133 0.000293725 0.00034522 0.000310463 0.000378391 0.00034522 0.000395178 0.000361408 0.00034522 0.000310463 0.000361408 0.000325679 0.000293725 0.000259453 0.000310463 0.000274293 0.000259453 0.000224511 0.000274293 0.000236847 0.000310463 0.000274293 0.000325679 0.000288106 0.000274293 0.000236847 0.000288106 0.000248799 0.000395178 0.000361408 0.000409832 0.000375721 0.000361408 0.000325679 0.000375721 0.000339391 0.000409832 0.000375721 0.000422488 0.00038825 0.000375721 0.000339391 0.00038825 0.000351636 0.000325679 0.000288106 0.000339391 0.000300918 0.000288106 0.000248799 0.000300918 0.000260399 0.000339391 0.000300918 0.000351636 0.000312699 0.000300918 0.000260399 0.000312699 0.000271537 0.000165234 0.000144382 0.000182285 0.000158374 0.000144382 0.000125959 0.000158374 0.000136427 0.000182285 0.000158374 0.000197636 0.000169922 0.000158374 0.000136427 0.000169922 0.000143302 0.000125959 0.000110311 0.000136427 0.000116618 0.000110311 9.78882e-05 0.000116618 9.90047e-05 0.000136427 0.000116618 0.000143302 0.00011762 0.000116618 9.90047e-05 0.00011762 9.22995e-05 0.000197636 0.000169922 0.000211568 0.000179807 0.000169922 0.000143302 0.000179807 0.000148167 0.000211568 0.000179807 0.000224511 0.000188976 0.000179807 0.000148167 0.000188976 0.000152742 0.000143302 0.00011762 0.000148167 0.000116276 0.00011762 9.22995e-05 0.000116276 8.329e-05 0.000148167 0.000116276 0.000152742 0.000115444 0.000116276 8.329e-05 0.000115444 7.64313e-05 9.78882e-05 8.94844e-05 9.90047e-05 8.3367e-05 8.94844e-05 8.67152e-05 8.3367e-05 6.86363e-05 9.90047e-05 8.3367e-05 9.22995e-05 6.59372e-05 8.3367e-05 6.86363e-05 6.59372e-05 3.53065e-05 8.67152e-05 9.55988e-05 6.86363e-05 4.84933e-05 9.55988e-05 0.000117809 4.84933e-05 -2.04199e-06 6.86363e-05 4.84933e-05 3.53065e-05 -6.24024e-06 4.84933e-05 -2.04199e-06 -6.24024e-06 -5.30666e-05 9.22995e-05 6.59372e-05 8.329e-05 4.77012e-05 6.59372e-05 3.53065e-05 4.77012e-05 7.33702e-06 8.329e-05 4.77012e-05 7.64313e-05 3.48804e-05 4.77012e-05 7.33702e-06 3.48804e-05 -9.45086e-06 3.53065e-05 -6.24024e-06 7.33702e-06 -3.76485e-05 -6.24024e-06 -5.30666e-05 -3.76485e-05 -8.24449e-05 7.33702e-06 -3.76485e-05 -9.45086e-06 -5.51429e-05 -3.76485e-05 -8.24449e-05 -5.51429e-05 -9.83264e-05 0.000224511 0.000188976 0.000236847 0.00019819 0.000188976 0.000152742 0.00019819 0.000158265 0.000236847 0.00019819 0.000248799 0.000207842 0.00019819 0.000158265 0.000207842 0.000165285 0.000152742 0.000115444 0.000158265 0.000116885 0.000115444 7.64313e-05 0.000116885 7.37974e-05 0.000158265 0.000116885 0.000165285 0.000121163 0.000116885 7.37974e-05 0.000121163 7.55952e-05 0.000248799 0.000207842 0.000260399 0.000217958 0.000207842 0.000165285 0.000217958 0.00017375 0.000260399 0.000217958 0.000271537 0.000228304 0.000217958 0.00017375 0.000228304 0.000183235 0.000165285 0.000121163 0.00017375 0.000127997 0.000121163 7.55952e-05 0.000127997 8.10643e-05 0.00017375 0.000127997 0.000183235 0.000136674 0.000127997 8.10643e-05 0.000136674 8.91149e-05 7.64313e-05 3.48804e-05 7.37974e-05 2.89363e-05 3.48804e-05 -9.45086e-06 2.89363e-05 -1.71348e-05 7.37974e-05 2.89363e-05 7.55952e-05 2.89645e-05 2.89363e-05 -1.71348e-05 2.89645e-05 -1.78451e-05 -9.45086e-06 -5.51429e-05 -1.71348e-05 -6.27344e-05 -5.51429e-05 -9.83264e-05 -6.27344e-05 -0.000105152 -1.71348e-05 -6.27344e-05 -1.78451e-05 -6.33264e-05 -6.27344e-05 -0.000105152 -6.33264e-05 -0.000105539 7.55952e-05 2.89645e-05 8.10643e-05 3.35602e-05 2.89645e-05 -1.78451e-05 3.35602e-05 -1.35682e-05 8.10643e-05 3.35602e-05 8.91149e-05 4.12506e-05 3.35602e-05 -1.35682e-05 4.12506e-05 -6.0135e-06 -1.78451e-05 -6.33264e-05 -1.35682e-05 -5.9044e-05 -6.33264e-05 -0.000105539 -5.9044e-05 -0.000101446 -1.35682e-05 -5.9044e-05 -6.0135e-06 -5.16097e-05 -5.9044e-05 -0.000101446 -5.16097e-05 -9.4456e-05 0.000535425 0.000510795 0.000545878 0.000521324 0.000510795 0.000483764 0.000521324 0.000494406 0.000545878 0.000521324 0.000554648 0.00053015 0.000521324 0.000494406 0.00053015 0.000503332 0.000483764 0.000454328 0.000494406 0.000465081 0.000454328 0.000422488 0.000465081 0.000433321 0.000494406 0.000465081 0.000503332 0.000474129 0.000465081 0.000433321 0.000474129 0.000442499 0.000554648 0.00053015 0.000561901 0.00053745 0.00053015 0.000503332 0.00053745 0.000510718 0.000561901 0.00053745 0.000567751 0.000543341 0.00053745 0.000510718 0.000543341 0.000516679 0.000503332 0.000474129 0.000510718 0.000481634 0.000474129 0.000442499 0.000481634 0.00045015 0.000510718 0.000481634 0.000516679 0.000487702 0.000481634 0.00045015 0.000487702 0.000456362 0.000422488 0.00038825 0.000433321 0.00039911 0.00038825 0.000351636 0.00039911 0.000362453 0.000433321 0.00039911 0.000442499 0.000408413 0.00039911 0.000362453 0.000408413 0.00037187 0.000351636 0.000312699 0.000362453 0.00032339 0.000312699 0.000271537 0.00032339 0.000282018 0.000362453 0.00032339 0.00037187 0.000332905 0.00032339 0.000282018 0.000332905 0.000291616 0.000442499 0.000408413 0.00045015 0.000416239 0.000408413 0.00037187 0.000416239 0.000379896 0.00045015 0.000416239 0.000456362 0.000422635 0.000416239 0.000379896 0.000422635 0.000386517 0.00037187 0.000332905 0.000379896 0.000341154 0.000332905 0.000291616 0.000341154 0.00030011 0.000379896 0.000341154 0.000386517 0.000348043 0.000341154 0.00030011 0.000348043 0.000307307 0.000567751 0.000543341 0.000572264 0.000547888 0.000543341 0.000516679 0.000547888 0.000521284 0.000572264 0.000547888 0.000575472 0.000551124 0.000547888 0.000521284 0.000551124 0.000524564 0.000516679 0.000487702 0.000521284 0.000492396 0.000487702 0.000456362 0.000492396 0.000461181 0.000521284 0.000492396 0.000524564 0.000495743 0.000492396 0.000461181 0.000495743 0.000464624 0.000575472 0.000551124 0.000577394 0.000553063 0.000551124 0.000524564 0.000553063 0.00052653 0.000577394 0.000553063 0.000578034 0.000553709 0.000553063 0.00052653 0.000553709 0.000527185 0.000524564 0.000495743 0.00052653 0.00049775 0.000495743 0.000464624 0.00049775 0.000466691 0.00052653 0.00049775 0.000527185 0.000498419 0.00049775 0.000466691 0.000498419 0.00046738 0.000456362 0.000422635 0.000461181 0.000427618 0.000422635 0.000386517 0.000427618 0.000391709 0.000461181 0.000427618 0.000464624 0.000431189 0.000427618 0.000391709 0.000431189 0.000395444 0.000386517 0.000348043 0.000391709 0.00035349 0.000348043 0.000307307 0.00035349 0.000313051 0.000391709 0.00035349 0.000395444 0.000357428 0.00035349 0.000313051 0.000357428 0.000317228 0.000464624 0.000431189 0.000466691 0.000433337 0.000431189 0.000395444 0.000433337 0.000397697 0.000466691 0.000433337 0.00046738 0.000434054 0.000433337 0.000397697 0.000434054 0.00039845 0.000395444 0.000357428 0.000397697 0.000359811 0.000357428 0.000317228 0.000359811 0.000319762 0.000397697 0.000359811 0.00039845 0.000360608 0.000359811 0.000319762 0.000360608 0.000320612 0.000271537 0.000228304 0.000282018 0.000238513 0.000228304 0.000183235 0.000238513 0.000193154 0.000282018 0.000238513 0.000291616 0.000248184 0.000238513 0.000193154 0.000248184 0.0002029 0.000183235 0.000136674 0.000193154 0.000146342 0.000136674 8.91149e-05 0.000146342 9.862e-05 0.000193154 0.000146342 0.0002029 0.000156179 0.000146342 9.862e-05 0.000156179 0.000108561 0.000291616 0.000248184 0.00030011 0.000256942 0.000248184 0.0002029 0.000256942 0.000211933 0.00030011 0.000256942 0.000307307 0.000264476 0.000256942 0.000211933 0.000264476 0.000219816 0.0002029 0.000156179 0.000211933 0.000165481 0.000156179 0.000108561 0.000165481 0.000118097 0.000211933 0.000165481 0.000219816 0.000173696 0.000165481 0.000118097 0.000173696 0.000126585 8.91149e-05 4.12506e-05 9.862e-05 5.06849e-05 4.12506e-05 -6.0135e-06 5.06849e-05 3.36214e-06 9.862e-05 5.06849e-05 0.000108561 6.07048e-05 5.06849e-05 3.36214e-06 6.07048e-05 1.33539e-05 -6.0135e-06 -5.16097e-05 3.36214e-06 -4.24483e-05 -5.16097e-05 -9.4456e-05 -4.24483e-05 -8.58829e-05 3.36214e-06 -4.24483e-05 1.33539e-05 -3.27197e-05 -4.24483e-05 -8.58829e-05 -3.27197e-05 -7.67962e-05 0.000108561 6.07048e-05 0.000118097 7.03867e-05 6.07048e-05 1.33539e-05 7.03867e-05 2.30185e-05 0.000118097 7.03867e-05 0.000126585 7.9037e-05 7.03867e-05 2.30185e-05 7.9037e-05 3.16563e-05 1.33539e-05 -3.27197e-05 2.30185e-05 -2.33293e-05 -3.27197e-05 -7.67962e-05 -2.33293e-05 -6.80333e-05 2.30185e-05 -2.33293e-05 3.16563e-05 -1.49489e-05 -2.33293e-05 -6.80333e-05 -1.49489e-05 -6.02175e-05 0.000307307 0.000264476 0.000313051 0.000270548 0.000264476 0.000219816 0.000270548 0.000226226 0.000313051 0.000270548 0.000317228 0.00027499 0.000270548 0.000226226 0.00027499 0.000230939 0.000219816 0.000173696 0.000226226 0.000180422 0.000173696 0.000126585 0.000180422 0.000133566 0.000226226 0.000180422 0.000230939 0.000185387 0.000180422 0.000133566 0.000185387 0.000138734 0.000317228 0.00027499 0.000319762 0.000277693 0.00027499 0.000230939 0.000277693 0.000233815 0.000319762 0.000277693 0.000320612 0.0002786 0.000277693 0.000233815 0.0002786 0.000234782 0.000230939 0.000185387 0.000233815 0.000188425 0.000185387 0.000138734 0.000188425 0.000141901 0.000233815 0.000188425 0.000234782 0.000189447 0.000188425 0.000141901 0.000189447 0.000142967 0.000126585 7.9037e-05 0.000133566 8.61665e-05 7.9037e-05 3.16563e-05 8.61665e-05 3.8775e-05 0.000133566 8.61665e-05 0.000138734 9.14501e-05 8.61665e-05 3.8775e-05 9.14501e-05 4.40494e-05 3.16563e-05 -1.49489e-05 3.8775e-05 -8.05008e-06 -1.49489e-05 -6.02175e-05 -8.05008e-06 -5.37867e-05 3.8775e-05 -8.05008e-06 4.40494e-05 -2.94278e-06 -8.05008e-06 -5.37867e-05 -2.94278e-06 -4.90275e-05 0.000138734 9.14501e-05 0.000141901 9.46895e-05 9.14501e-05 4.40494e-05 9.46895e-05 4.72821e-05 0.000141901 9.46895e-05 0.000142967 9.578e-05 9.46895e-05 4.72821e-05 9.578e-05 4.83703e-05 4.40494e-05 -2.94278e-06 4.72821e-05 1.85732e-07 -2.94278e-06 -4.90275e-05 1.85732e-07 -4.61128e-05 4.72821e-05 1.85732e-07 4.83703e-05 1.23838e-06 1.85732e-07 -4.61128e-05 1.23838e-06 -4.51323e-05 0.000117809 0.000104689 -2.04199e-06 -3.55499e-05 0.000104689 6.44268e-05 -3.55499e-05 -3.9865e-05 -2.04199e-06 -3.55499e-05 -5.30666e-05 -8.89035e-05 -3.55499e-05 -3.9865e-05 -8.89035e-05 -0.000106534 6.44268e-05 2.00248e-05 -3.9865e-05 -5.63912e-05 2.00248e-05 -2.0551e-05 -5.63912e-05 -7.79505e-05 -3.9865e-05 -5.63912e-05 -0.000106534 -0.00011645 -5.63912e-05 -7.79505e-05 -0.00011645 -0.000128627 -5.30666e-05 -8.89035e-05 -8.24449e-05 -0.00011837 -8.89035e-05 -0.000106534 -0.00011837 -0.000141577 -8.24449e-05 -0.00011837 -9.83264e-05 -0.000134378 -0.00011837 -0.000141577 -0.000134378 -0.000160991 -0.000106534 -0.00011645 -0.000141577 -0.00015593 -0.00011645 -0.000128627 -0.00015593 -0.000167003 -0.000141577 -0.00015593 -0.000160991 -0.000179539 -0.00015593 -0.000167003 -0.000179539 -0.000193328 -2.0551e-05 -5.65757e-05 -7.79505e-05 -0.000100583 -5.65757e-05 -8.72537e-05 -0.000100583 -0.000122093 -7.79505e-05 -0.000100583 -0.000128627 -0.000142756 -0.000100583 -0.000122093 -0.000142756 -0.000157701 -8.72537e-05 -0.000112237 -0.000122093 -0.000141314 -0.000112237 -0.000131567 -0.000141314 -0.00015768 -0.000122093 -0.000141314 -0.000157701 -0.000172427 -0.000141314 -0.00015768 -0.000172427 -0.000186192 -0.000128627 -0.000142756 -0.000167003 -0.000178145 -0.000142756 -0.000157701 -0.000178145 -0.000189948 -0.000167003 -0.000178145 -0.000193328 -0.000205217 -0.000178145 -0.000189948 -0.000205217 -0.000216804 -0.000157701 -0.000172427 -0.000189948 -0.000202196 -0.000172427 -0.000186192 -0.000202196 -0.000214405 -0.000189948 -0.000202196 -0.000216804 -0.000228593 -0.000202196 -0.000214405 -0.000228593 -0.000240509 -9.83264e-05 -0.000134378 -0.000105152 -0.000141605 -0.000134378 -0.000160991 -0.000141605 -0.000170664 -0.000105152 -0.000141605 -0.000105539 -0.000142703 -0.000141605 -0.000170664 -0.000142703 -0.000173877 -0.000160991 -0.000179539 -0.000170664 -0.000192875 -0.000179539 -0.000193328 -0.000192875 -0.000210148 -0.000170664 -0.000192875 -0.000173877 -0.000199293 -0.000192875 -0.000210148 -0.000199293 -0.000220109 -0.000105539 -0.000142703 -0.000101446 -0.000139558 -0.000142703 -0.000173877 -0.000139558 -0.000172728 -0.000101446 -0.000139558 -9.4456e-05 -0.000133667 -0.000139558 -0.000172728 -0.000133667 -0.000168757 -0.000173877 -0.000199293 -0.000172728 -0.000201046 -0.000199293 -0.000220109 -0.000201046 -0.000225232 -0.000172728 -0.000201046 -0.000168757 -0.000199734 -0.000201046 -0.000225232 -0.000199734 -0.000227042 -0.000193328 -0.000205217 -0.000210148 -0.000224624 -0.000205217 -0.000216804 -0.000224624 -0.000237887 -0.000210148 -0.000224624 -0.000220109 -0.000237823 -0.000224624 -0.000237887 -0.000237823 -0.000253748 -0.000216804 -0.000228593 -0.000237887 -0.000250781 -0.000228593 -0.000240509 -0.000250781 -0.000263534 -0.000237887 -0.000250781 -0.000253748 -0.000268738 -0.000250781 -0.000263534 -0.000268738 -0.000283157 -0.000220109 -0.000237823 -0.000225232 -0.000246314 -0.000237823 -0.000253748 -0.000246314 -0.000265289 -0.000225232 -0.000246314 -0.000227042 -0.000251372 -0.000246314 -0.000265289 -0.000251372 -0.000273438 -0.000253748 -0.000268738 -0.000265289 -0.000282884 -0.000268738 -0.000283157 -0.000282884 -0.000299474 -0.000265289 -0.000282884 -0.000273438 -0.000293806 -0.000282884 -0.000299474 -0.000293806 -0.000312798 -0.000131567 -0.000145706 -0.00015768 -0.00017102 -0.000145706 -0.000155446 -0.00017102 -0.000181446 -0.00015768 -0.00017102 -0.000186192 -0.000198493 -0.00017102 -0.000181446 -0.000198493 -0.000209011 -0.000155446 -0.000161758 -0.000181446 -0.000189246 -0.000161758 -0.000165631 -0.000189246 -0.000194808 -0.000181446 -0.000189246 -0.000209011 -0.000217583 -0.000189246 -0.000194808 -0.000217583 -0.000224183 -0.000186192 -0.000198493 -0.000214405 -0.000226047 -0.000198493 -0.000209011 -0.000226047 -0.000236623 -0.000214405 -0.000226047 -0.000240509 -0.00025218 -0.000226047 -0.000236623 -0.00025218 -0.000263108 -0.000209011 -0.000217583 -0.000236623 -0.000245724 -0.000217583 -0.000224183 -0.000245724 -0.000253071 -0.000236623 -0.000245724 -0.000263108 -0.000272799 -0.000245724 -0.000253071 -0.000272799 -0.000280852 -0.000165631 -0.000167919 -0.000194808 -0.000198545 -0.000167919 -0.000169244 -0.000198545 -0.000200834 -0.000194808 -0.000198545 -0.000224183 -0.000228903 -0.000198545 -0.000200834 -0.000228903 -0.000231924 -0.000169244 -0.000169959 -0.000200834 -0.000201982 -0.000169959 -0.000170169 -0.000201982 -0.000202231 -0.000200834 -0.000201982 -0.000231924 -0.000233474 -0.000201982 -0.000202231 -0.000233474 -0.000233775 -0.000224183 -0.000228903 -0.000253071 -0.000258543 -0.000228903 -0.000231924 -0.000258543 -0.00026217 -0.000253071 -0.000258543 -0.000280852 -0.000287026 -0.000258543 -0.00026217 -0.000287026 -0.000291254 -0.000231924 -0.000233474 -0.00026217 -0.000264102 -0.000233474 -0.000233775 -0.000264102 -0.000264541 -0.00026217 -0.000264102 -0.000291254 -0.000293625 -0.000264102 -0.000264541 -0.000293625 -0.000294324 -0.000240509 -0.00025218 -0.000263534 -0.000275967 -0.00025218 -0.000263108 -0.000275967 -0.000287675 -0.000263534 -0.000275967 -0.000283157 -0.00029697 -0.000275967 -0.000287675 -0.00029697 -0.000309887 -0.000263108 -0.000272799 -0.000287675 -0.000298183 -0.000272799 -0.000280852 -0.000298183 -0.000307065 -0.000287675 -0.000298183 -0.000309887 -0.000321502 -0.000298183 -0.000307065 -0.000321502 -0.000331419 -0.000283157 -0.00029697 -0.000299474 -0.000315103 -0.00029697 -0.000309887 -0.000315103 -0.000329578 -0.000299474 -0.000315103 -0.000312798 -0.00033049 -0.000315103 -0.000329578 -0.00033049 -0.000346759 -0.000309887 -0.000321502 -0.000329578 -0.000342577 -0.000321502 -0.000331419 -0.000342577 -0.000353758 -0.000329578 -0.000342577 -0.000346759 -0.000361357 -0.000342577 -0.000353758 -0.000361357 -0.000373997 -0.000280852 -0.000287026 -0.000307065 -0.000314027 -0.000287026 -0.000291254 -0.000314027 -0.00031895 -0.000307065 -0.000314027 -0.000331419 -0.000339341 -0.000314027 -0.00031895 -0.000339341 -0.000345121 -0.000291254 -0.000293625 -0.00031895 -0.000321883 -0.000293625 -0.000294324 -0.000321883 -0.000322992 -0.00031895 -0.000321883 -0.000345121 -0.000348775 -0.000321883 -0.000322992 -0.000348775 -0.000350444 -0.000331419 -0.000339341 -0.000353758 -0.00036284 -0.000339341 -0.000345121 -0.00036284 -0.000369663 -0.000353758 -0.00036284 -0.000373997 -0.000384421 -0.00036284 -0.000369663 -0.000384421 -0.000392453 -0.000345121 -0.000348775 -0.000369663 -0.000374204 -0.000348775 -0.000350444 -0.000374204 -0.000376565 -0.000369663 -0.000374204 -0.000392453 -0.000398025 -0.000374204 -0.000376565 -0.000398025 -0.000401178 -9.4456e-05 -0.000133667 -8.58829e-05 -0.000126253 -0.000133667 -0.000168757 -0.000126253 -0.000163162 -8.58829e-05 -0.000126253 -7.67962e-05 -0.000118303 -0.000126253 -0.000163162 -0.000118303 -0.000156888 -0.000168757 -0.000199734 -0.000163162 -0.00019656 -0.000199734 -0.000227042 -0.00019656 -0.0002267 -0.000163162 -0.00019656 -0.000156888 -0.000192445 -0.00019656 -0.0002267 -0.000192445 -0.000225088 -7.67962e-05 -0.000118303 -6.80333e-05 -0.000110589 -0.000118303 -0.000156888 -0.000110589 -0.000150657 -6.80333e-05 -0.000110589 -6.02175e-05 -0.000103682 -0.000110589 -0.000150657 -0.000103682 -0.000145002 -0.000156888 -0.000192445 -0.000150657 -0.00018808 -0.000192445 -0.000225088 -0.00018808 -0.000222869 -0.000150657 -0.00018808 -0.000145002 -0.000183975 -0.00018808 -0.000222869 -0.000183975 -0.000220531 -0.000227042 -0.000251372 -0.0002267 -0.000254025 -0.000251372 -0.000273438 -0.000254025 -0.000279023 -0.0002267 -0.000254025 -0.000225088 -0.000255078 -0.000254025 -0.000279023 -0.000255078 -0.000282731 -0.000273438 -0.000293806 -0.000279023 -0.000302105 -0.000293806 -0.0003