# vtk DataFile Version 3.0
#This file was generated by the deal.II library on 2022/11/17 at 0:33:58
ASCII
DATASET UNSTRUCTURED_GRID

POINTS 9904 double
0.4375 0.75 0
0.46875 0.75 0
0.4375 0.78125 0
0.46875 0.78125 0
0.46875 0.75 0
0.5 0.75 0
0.46875 0.78125 0
0.5 0.78125 0
0.4375 0.78125 0
0.46875 0.78125 0
0.4375 0.8125 0
0.46875 0.8125 0
0.46875 0.78125 0
0.5 0.78125 0
0.46875 0.8125 0
0.5 0.8125 0
0.4375 0.8125 0
0.46875 0.8125 0
0.4375 0.84375 0
0.46875 0.84375 0
0.46875 0.8125 0
0.5 0.8125 0
0.46875 0.84375 0
0.5 0.84375 0
0.4375 0.84375 0
0.46875 0.84375 0
0.4375 0.875 0
0.46875 0.875 0
0.46875 0.84375 0
0.5 0.84375 0
0.46875 0.875 0
0.5 0.875 0
0.375 0.875 0
0.40625 0.875 0
0.375 0.90625 0
0.40625 0.90625 0
0.40625 0.875 0
0.4375 0.875 0
0.40625 0.90625 0
0.4375 0.90625 0
0.375 0.90625 0
0.40625 0.90625 0
0.375 0.9375 0
0.40625 0.9375 0
0.40625 0.90625 0
0.4375 0.90625 0
0.40625 0.9375 0
0.4375 0.9375 0
0.4375 0.875 0
0.46875 0.875 0
0.4375 0.90625 0
0.46875 0.90625 0
0.46875 0.875 0
0.5 0.875 0
0.46875 0.90625 0
0.5 0.90625 0
0.4375 0.90625 0
0.46875 0.90625 0
0.4375 0.9375 0
0.46875 0.9375 0
0.46875 0.90625 0
0.5 0.90625 0
0.46875 0.9375 0
0.5 0.9375 0
0.5625 0.5625 0
0.59375 0.5625 0
0.5625 0.59375 0
0.59375 0.59375 0
0.59375 0.5625 0
0.625 0.5625 0
0.59375 0.59375 0
0.625 0.59375 0
0.5625 0.59375 0
0.59375 0.59375 0
0.5625 0.625 0
0.59375 0.625 0
0.59375 0.59375 0
0.625 0.59375 0
0.59375 0.625 0
0.625 0.625 0
0.625 0.5 0
0.65625 0.5 0
0.625 0.53125 0
0.65625 0.53125 0
0.65625 0.5 0
0.6875 0.5 0
0.65625 0.53125 0
0.6875 0.53125 0
0.625 0.53125 0
0.65625 0.53125 0
0.625 0.5625 0
0.65625 0.5625 0
0.65625 0.53125 0
0.6875 0.53125 0
0.65625 0.5625 0
0.6875 0.5625 0
0.6875 0.5 0
0.71875 0.5 0
0.6875 0.53125 0
0.71875 0.53125 0
0.71875 0.5 0
0.75 0.5 0
0.71875 0.53125 0
0.75 0.53125 0
0.6875 0.53125 0
0.71875 0.53125 0
0.6875 0.5625 0
0.71875 0.5625 0
0.71875 0.53125 0
0.75 0.53125 0
0.71875 0.5625 0
0.75 0.5625 0
0.625 0.5625 0
0.65625 0.5625 0
0.625 0.59375 0
0.65625 0.59375 0
0.65625 0.5625 0
0.6875 0.5625 0
0.65625 0.59375 0
0.6875 0.59375 0
0.625 0.59375 0
0.65625 0.59375 0
0.625 0.625 0
0.65625 0.625 0
0.65625 0.59375 0
0.6875 0.59375 0
0.65625 0.625 0
0.6875 0.625 0
0.6875 0.5625 0
0.71875 0.5625 0
0.6875 0.59375 0
0.71875 0.59375 0
0.71875 0.5625 0
0.75 0.5625 0
0.71875 0.59375 0
0.75 0.59375 0
0.6875 0.59375 0
0.71875 0.59375 0
0.6875 0.625 0
0.71875 0.625 0
0.71875 0.59375 0
0.75 0.59375 0
0.71875 0.625 0
0.75 0.625 0
0.5625 0.625 0
0.59375 0.625 0
0.5625 0.65625 0
0.59375 0.65625 0
0.59375 0.625 0
0.625 0.625 0
0.59375 0.65625 0
0.625 0.65625 0
0.5625 0.65625 0
0.59375 0.65625 0
0.5625 0.6875 0
0.59375 0.6875 0
0.59375 0.65625 0
0.625 0.65625 0
0.59375 0.6875 0
0.625 0.6875 0
0.5 0.6875 0
0.53125 0.6875 0
0.5 0.71875 0
0.53125 0.71875 0
0.53125 0.6875 0
0.5625 0.6875 0
0.53125 0.71875 0
0.5625 0.71875 0
0.5 0.71875 0
0.53125 0.71875 0
0.5 0.75 0
0.53125 0.75 0
0.53125 0.71875 0
0.5625 0.71875 0
0.53125 0.75 0
0.5625 0.75 0
0.5625 0.6875 0
0.59375 0.6875 0
0.5625 0.71875 0
0.59375 0.71875 0
0.59375 0.6875 0
0.625 0.6875 0
0.59375 0.71875 0
0.625 0.71875 0
0.5625 0.71875 0
0.59375 0.71875 0
0.5625 0.75 0
0.59375 0.75 0
0.59375 0.71875 0
0.625 0.71875 0
0.59375 0.75 0
0.625 0.75 0
0.625 0.625 0
0.65625 0.625 0
0.625 0.65625 0
0.65625 0.65625 0
0.65625 0.625 0
0.6875 0.625 0
0.65625 0.65625 0
0.6875 0.65625 0
0.625 0.65625 0
0.65625 0.65625 0
0.625 0.6875 0
0.65625 0.6875 0
0.65625 0.65625 0
0.6875 0.65625 0
0.65625 0.6875 0
0.6875 0.6875 0
0.6875 0.625 0
0.71875 0.625 0
0.6875 0.65625 0
0.71875 0.65625 0
0.71875 0.625 0
0.75 0.625 0
0.71875 0.65625 0
0.75 0.65625 0
0.6875 0.65625 0
0.71875 0.65625 0
0.6875 0.6875 0
0.71875 0.6875 0
0.71875 0.65625 0
0.75 0.65625 0
0.71875 0.6875 0
0.75 0.6875 0
0.625 0.6875 0
0.65625 0.6875 0
0.625 0.71875 0
0.65625 0.71875 0
0.65625 0.6875 0
0.6875 0.6875 0
0.65625 0.71875 0
0.6875 0.71875 0
0.625 0.71875 0
0.65625 0.71875 0
0.625 0.75 0
0.65625 0.75 0
0.65625 0.71875 0
0.6875 0.71875 0
0.65625 0.75 0
0.6875 0.75 0
0.6875 0.6875 0
0.71875 0.6875 0
0.6875 0.71875 0
0.71875 0.71875 0
0.71875 0.6875 0
0.75 0.6875 0
0.71875 0.71875 0
0.75 0.71875 0
0.6875 0.71875 0
0.71875 0.71875 0
0.6875 0.75 0
0.71875 0.75 0
0.71875 0.71875 0
0.75 0.71875 0
0.71875 0.75 0
0.75 0.75 0
0.75 0.5 0
0.78125 0.5 0
0.75 0.53125 0
0.78125 0.53125 0
0.78125 0.5 0
0.8125 0.5 0
0.78125 0.53125 0
0.8125 0.53125 0
0.75 0.53125 0
0.78125 0.53125 0
0.75 0.5625 0
0.78125 0.5625 0
0.78125 0.53125 0
0.8125 0.53125 0
0.78125 0.5625 0
0.8125 0.5625 0
0.8125 0.5 0
0.84375 0.5 0
0.8125 0.53125 0
0.84375 0.53125 0
0.84375 0.5 0
0.875 0.5 0
0.84375 0.53125 0
0.875 0.53125 0
0.8125 0.53125 0
0.84375 0.53125 0
0.8125 0.5625 0
0.84375 0.5625 0
0.84375 0.53125 0
0.875 0.53125 0
0.84375 0.5625 0
0.875 0.5625 0
0.75 0.5625 0
0.78125 0.5625 0
0.75 0.59375 0
0.78125 0.59375 0
0.78125 0.5625 0
0.8125 0.5625 0
0.78125 0.59375 0
0.8125 0.59375 0
0.75 0.59375 0
0.78125 0.59375 0
0.75 0.625 0
0.78125 0.625 0
0.78125 0.59375 0
0.8125 0.59375 0
0.78125 0.625 0
0.8125 0.625 0
0.8125 0.5625 0
0.84375 0.5625 0
0.8125 0.59375 0
0.84375 0.59375 0
0.84375 0.5625 0
0.875 0.5625 0
0.84375 0.59375 0
0.875 0.59375 0
0.8125 0.59375 0
0.84375 0.59375 0
0.8125 0.625 0
0.84375 0.625 0
0.84375 0.59375 0
0.875 0.59375 0
0.84375 0.625 0
0.875 0.625 0
0.875 0.5 0
0.90625 0.5 0
0.875 0.53125 0
0.90625 0.53125 0
0.90625 0.5 0
0.9375 0.5 0
0.90625 0.53125 0
0.9375 0.53125 0
0.875 0.53125 0
0.90625 0.53125 0
0.875 0.5625 0
0.90625 0.5625 0
0.90625 0.53125 0
0.9375 0.53125 0
0.90625 0.5625 0
0.9375 0.5625 0
0.9375 0.5 0
0.96875 0.5 0
0.9375 0.53125 0
0.96875 0.53125 0
0.96875 0.5 0
1 0.5 0
0.96875 0.53125 0
1 0.53125 0
0.9375 0.53125 0
0.96875 0.53125 0
0.9375 0.5625 0
0.96875 0.5625 0
0.96875 0.53125 0
1 0.53125 0
0.96875 0.5625 0
1 0.5625 0
0.875 0.5625 0
0.90625 0.5625 0
0.875 0.59375 0
0.90625 0.59375 0
0.90625 0.5625 0
0.9375 0.5625 0
0.90625 0.59375 0
0.9375 0.59375 0
0.875 0.59375 0
0.90625 0.59375 0
0.875 0.625 0
0.90625 0.625 0
0.90625 0.59375 0
0.9375 0.59375 0
0.90625 0.625 0
0.9375 0.625 0
0.9375 0.5625 0
0.96875 0.5625 0
0.9375 0.59375 0
0.96875 0.59375 0
0.96875 0.5625 0
1 0.5625 0
0.96875 0.59375 0
1 0.59375 0
0.9375 0.59375 0
0.96875 0.59375 0
0.9375 0.625 0
0.96875 0.625 0
0.96875 0.59375 0
1 0.59375 0
0.96875 0.625 0
1 0.625 0
0.75 0.625 0
0.78125 0.625 0
0.75 0.65625 0
0.78125 0.65625 0
0.78125 0.625 0
0.8125 0.625 0
0.78125 0.65625 0
0.8125 0.65625 0
0.75 0.65625 0
0.78125 0.65625 0
0.75 0.6875 0
0.78125 0.6875 0
0.78125 0.65625 0
0.8125 0.65625 0
0.78125 0.6875 0
0.8125 0.6875 0
0.8125 0.625 0
0.84375 0.625 0
0.8125 0.65625 0
0.84375 0.65625 0
0.84375 0.625 0
0.875 0.625 0
0.84375 0.65625 0
0.875 0.65625 0
0.8125 0.65625 0
0.84375 0.65625 0
0.8125 0.6875 0
0.84375 0.6875 0
0.84375 0.65625 0
0.875 0.65625 0
0.84375 0.6875 0
0.875 0.6875 0
0.75 0.6875 0
0.78125 0.6875 0
0.75 0.71875 0
0.78125 0.71875 0
0.78125 0.6875 0
0.8125 0.6875 0
0.78125 0.71875 0
0.8125 0.71875 0
0.75 0.71875 0
0.78125 0.71875 0
0.75 0.75 0
0.78125 0.75 0
0.78125 0.71875 0
0.8125 0.71875 0
0.78125 0.75 0
0.8125 0.75 0
0.8125 0.6875 0
0.84375 0.6875 0
0.8125 0.71875 0
0.84375 0.71875 0
0.84375 0.6875 0
0.875 0.6875 0
0.84375 0.71875 0
0.875 0.71875 0
0.8125 0.71875 0
0.84375 0.71875 0
0.8125 0.75 0
0.84375 0.75 0
0.84375 0.71875 0
0.875 0.71875 0
0.84375 0.75 0
0.875 0.75 0
0.875 0.625 0
0.90625 0.625 0
0.875 0.65625 0
0.90625 0.65625 0
0.90625 0.625 0
0.9375 0.625 0
0.90625 0.65625 0
0.9375 0.65625 0
0.875 0.65625 0
0.90625 0.65625 0
0.875 0.6875 0
0.90625 0.6875 0
0.90625 0.65625 0
0.9375 0.65625 0
0.90625 0.6875 0
0.9375 0.6875 0
0.9375 0.625 0
0.96875 0.625 0
0.9375 0.65625 0
0.96875 0.65625 0
0.96875 0.625 0
1 0.625 0
0.96875 0.65625 0
1 0.65625 0
0.9375 0.65625 0
0.96875 0.65625 0
0.9375 0.6875 0
0.96875 0.6875 0
0.96875 0.65625 0
1 0.65625 0
0.96875 0.6875 0
1 0.6875 0
0.875 0.6875 0
0.90625 0.6875 0
0.875 0.71875 0
0.90625 0.71875 0
0.90625 0.6875 0
0.9375 0.6875 0
0.90625 0.71875 0
0.9375 0.71875 0
0.875 0.71875 0
0.90625 0.71875 0
0.875 0.75 0
0.90625 0.75 0
0.90625 0.71875 0
0.9375 0.71875 0
0.90625 0.75 0
0.9375 0.75 0
0.9375 0.6875 0
0.96875 0.6875 0
0.9375 0.71875 0
0.96875 0.71875 0
0.96875 0.6875 0
1 0.6875 0
0.96875 0.71875 0
1 0.71875 0
0.9375 0.71875 0
0.96875 0.71875 0
0.9375 0.75 0
0.96875 0.75 0
0.96875 0.71875 0
1 0.71875 0
0.96875 0.75 0
1 0.75 0
0.5 0.75 0
0.53125 0.75 0
0.5 0.78125 0
0.53125 0.78125 0
0.53125 0.75 0
0.5625 0.75 0
0.53125 0.78125 0
0.5625 0.78125 0
0.5 0.78125 0
0.53125 0.78125 0
0.5 0.8125 0
0.53125 0.8125 0
0.53125 0.78125 0
0.5625 0.78125 0
0.53125 0.8125 0
0.5625 0.8125 0
0.5625 0.75 0
0.59375 0.75 0
0.5625 0.78125 0
0.59375 0.78125 0
0.59375 0.75 0
0.625 0.75 0
0.59375 0.78125 0
0.625 0.78125 0
0.5625 0.78125 0
0.59375 0.78125 0
0.5625 0.8125 0
0.59375 0.8125 0
0.59375 0.78125 0
0.625 0.78125 0
0.59375 0.8125 0
0.625 0.8125 0
0.5 0.8125 0
0.53125 0.8125 0
0.5 0.84375 0
0.53125 0.84375 0
0.53125 0.8125 0
0.5625 0.8125 0
0.53125 0.84375 0
0.5625 0.84375 0
0.5 0.84375 0
0.53125 0.84375 0
0.5 0.875 0
0.53125 0.875 0
0.53125 0.84375 0
0.5625 0.84375 0
0.53125 0.875 0
0.5625 0.875 0
0.5625 0.8125 0
0.59375 0.8125 0
0.5625 0.84375 0
0.59375 0.84375 0
0.59375 0.8125 0
0.625 0.8125 0
0.59375 0.84375 0
0.625 0.84375 0
0.5625 0.84375 0
0.59375 0.84375 0
0.5625 0.875 0
0.59375 0.875 0
0.59375 0.84375 0
0.625 0.84375 0
0.59375 0.875 0
0.625 0.875 0
0.625 0.75 0
0.65625 0.75 0
0.625 0.78125 0
0.65625 0.78125 0
0.65625 0.75 0
0.6875 0.75 0
0.65625 0.78125 0
0.6875 0.78125 0
0.625 0.78125 0
0.65625 0.78125 0
0.625 0.8125 0
0.65625 0.8125 0
0.65625 0.78125 0
0.6875 0.78125 0
0.65625 0.8125 0
0.6875 0.8125 0
0.6875 0.75 0
0.71875 0.75 0
0.6875 0.78125 0
0.71875 0.78125 0
0.71875 0.75 0
0.75 0.75 0
0.71875 0.78125 0
0.75 0.78125 0
0.6875 0.78125 0
0.71875 0.78125 0
0.6875 0.8125 0
0.71875 0.8125 0
0.71875 0.78125 0
0.75 0.78125 0
0.71875 0.8125 0
0.75 0.8125 0
0.625 0.8125 0
0.65625 0.8125 0
0.625 0.84375 0
[...]
POINT_DATA 9904
SCALARS x_dis double 1
LOOKUP_TABLE default
-0.000159654 -0.000245103 -0.000208123 -0.00029365 -0.000245103 -0.000321825 -0.00029365 -0.000371382 -0.000208123 -0.00029365 -0.000248979 -0.000334662 -0.00029365 -0.000371382 -0.000334662 -0.000413318 -0.000248979 -0.000334662 -0.00028291 -0.000368695 -0.000334662 -0.000413318 -0.000368695 -0.000448192 -0.00028291 -0.000368695 -0.000310405 -0.000396375 -0.000368695 -0.000448192 -0.000396375 -0.000476477 -0.000123676 -0.000219007 -0.000145178 -0.000240533 -0.000219007 -0.000310405 -0.000240533 -0.000332263 -0.000145178 -0.000240533 -0.000159878 -0.000255303 -0.000240533 -0.000332263 -0.000255303 -0.000348753 -0.000310405 -0.000396375 -0.000332263 -0.000418153 -0.000396375 -0.000476477 -0.000418153 -0.00049884 -0.000332263 -0.000418153 -0.000348753 -0.000436031 -0.000418153 -0.00049884 -0.000436031 -0.000515173 0.000182818 0.000167993 1.93911e-05 9.07339e-07 0.000167993 0.00014805 9.07339e-07 -1.36909e-05 1.93911e-05 9.07339e-07 -0.000109544 -0.000134485 9.07339e-07 -1.36909e-05 -0.000134485 -0.000151788 0.000520573 0.000448166 0.000332107 0.000287283 0.000448166 0.000384935 0.000287283 0.000244561 0.000332107 0.000287283 0.00014805 0.000123802 0.000287283 0.000244561 0.000123802 9.75237e-05 0.000384935 0.00033062 0.000244561 0.000205429 0.00033062 0.000284866 0.000205429 0.0001708 0.000244561 0.000205429 9.75237e-05 7.1372e-05 0.000205429 0.0001708 7.1372e-05 4.68007e-05 0.00014805 0.000123802 -1.36909e-05 -2.90302e-05 0.000123802 9.75237e-05 -2.90302e-05 -4.56603e-05 -1.36909e-05 -2.90302e-05 -0.000151788 -0.000165771 -2.90302e-05 -4.56603e-05 -0.000165771 -0.000178764 9.75237e-05 7.1372e-05 -4.56603e-05 -6.29304e-05 7.1372e-05 4.68007e-05 -6.29304e-05 -7.99135e-05 -4.56603e-05 -6.29304e-05 -0.000178764 -0.000191479 -6.29304e-05 -7.99135e-05 -0.000191479 -0.000203845 -0.000109544 -0.000134485 -0.000215646 -0.000246948 -0.000134485 -0.000151788 -0.000246948 -0.000269228 -0.000215646 -0.000246948 -0.000304959 -0.000341971 -0.000246948 -0.000269228 -0.000341971 -0.000369648 -0.000195061 -0.000256249 -0.000263525 -0.000327535 -0.000256249 -0.000304959 -0.000327535 -0.00038047 -0.000263525 -0.000327535 -0.000321825 -0.00038848 -0.000327535 -0.00038047 -0.00038848 -0.000445092 -0.000304959 -0.000341971 -0.00038047 -0.000422826 -0.000341971 -0.000369648 -0.000422826 -0.000455828 -0.00038047 -0.000422826 -0.000445092 -0.00049193 -0.000422826 -0.000455828 -0.00049193 -0.000529821 -0.000151788 -0.000165771 -0.000269228 -0.000285802 -0.000165771 -0.000178764 -0.000285802 -0.000299189 -0.000269228 -0.000285802 -0.000369648 -0.000390428 -0.000285802 -0.000299189 -0.000390428 -0.00040647 -0.000178764 -0.000191479 -0.000299189 -0.000310818 -0.000191479 -0.000203845 -0.000310818 -0.000321288 -0.000299189 -0.000310818 -0.00040647 -0.00041935 -0.000310818 -0.000321288 -0.00041935 -0.000430024 -0.000369648 -0.000390428 -0.000455828 -0.000481327 -0.000390428 -0.00040647 -0.000481327 -0.000501089 -0.000455828 -0.000481327 -0.000529821 -0.000559991 -0.000481327 -0.000501089 -0.000559991 -0.000583821 -0.00040647 -0.00041935 -0.000501089 -0.000516582 -0.00041935 -0.000430024 -0.000516582 -0.000528871 -0.000501089 -0.000516582 -0.000583821 -0.00060258 -0.000516582 -0.000528871 -0.00060258 -0.000617303 0.000284866 0.000247322 0.0001708 0.000141179 0.000247322 0.00021761 0.000141179 0.000116767 0.0001708 0.000141179 4.68007e-05 2.47672e-05 0.000141179 0.000116767 2.47672e-05 5.86743e-06 0.00021761 0.000195282 0.000116767 9.75297e-05 0.000195282 0.000179739 9.75297e-05 8.32247e-05 0.000116767 9.75297e-05 5.86743e-06 -9.57944e-06 9.75297e-05 8.32247e-05 -9.57944e-06 -2.1464e-05 4.68007e-05 2.47672e-05 -7.99135e-05 -9.57589e-05 2.47672e-05 5.86743e-06 -9.57589e-05 -0.000109797 -7.99135e-05 -9.57589e-05 -0.000203845 -0.000215463 -9.57589e-05 -0.000109797 -0.000215463 -0.000225857 5.86743e-06 -9.57944e-06 -0.000109797 -0.000121546 -9.57944e-06 -2.1464e-05 -0.000121546 -0.000130684 -0.000109797 -0.000121546 -0.000225857 -0.000234582 -0.000121546 -0.000130684 -0.000234582 -0.000241268 0.000179739 0.000170142 8.32247e-05 7.34184e-05 0.000170142 0.000165299 7.34184e-05 6.74971e-05 8.32247e-05 7.34184e-05 -2.1464e-05 -2.98365e-05 7.34184e-05 6.74971e-05 -2.98365e-05 -3.48849e-05 0.000165299 0.00016359 6.74971e-05 6.46944e-05 0.00016359 0.000163219 6.46944e-05 6.39174e-05 6.74971e-05 6.46944e-05 -3.48849e-05 -3.70093e-05 6.46944e-05 6.39174e-05 -3.70093e-05 -3.71979e-05 -2.1464e-05 -2.98365e-05 -0.000130684 -0.000137024 -2.98365e-05 -3.48849e-05 -0.000137024 -0.000140526 -0.000130684 -0.000137024 -0.000241268 -0.000245632 -0.000137024 -0.000140526 -0.000245632 -0.000247523 -3.48849e-05 -3.70093e-05 -0.000140526 -0.000141408 -3.70093e-05 -3.71979e-05 -0.000141408 -0.000140393 -0.000140526 -0.000141408 -0.000247523 -0.000246999 -0.000141408 -0.000140393 -0.000246999 -0.00024443 -0.000203845 -0.000215463 -0.000321288 -0.000330697 -0.000215463 -0.000225857 -0.000330697 -0.000338877 -0.000321288 -0.000330697 -0.000430024 -0.000438956 -0.000330697 -0.000338877 -0.000438956 -0.000446279 -0.000225857 -0.000234582 -0.000338877 -0.00034555 -0.000234582 -0.000241268 -0.00034555 -0.000350412 -0.000338877 -0.00034555 -0.000446279 -0.000451918 -0.00034555 -0.000350412 -0.000451918 -0.00045569 -0.000430024 -0.000438956 -0.000528871 -0.00053863 -0.000438956 -0.000446279 -0.00053863 -0.000546206 -0.000528871 -0.00053863 -0.000617303 -0.000628742 -0.00053863 -0.000546206 -0.000628742 -0.000637367 -0.000446279 -0.000451918 -0.000546206 -0.000551707 -0.000451918 -0.00045569 -0.000551707 -0.000555074 -0.000546206 -0.000551707 -0.000637367 -0.000643418 -0.000551707 -0.000555074 -0.000643418 -0.000646935 -0.000241268 -0.000245632 -0.000350412 -0.000353184 -0.000245632 -0.000247523 -0.000353184 -0.000353659 -0.000350412 -0.000353184 -0.00045569 -0.000457367 -0.000353184 -0.000353659 -0.000457367 -0.00045672 -0.000247523 -0.000246999 -0.000353659 -0.000351746 -0.000246999 -0.00024443 -0.000351746 -0.000347469 -0.000353659 -0.000351746 -0.00045672 -0.000453531 -0.000351746 -0.000347469 -0.000453531 -0.000447541 -0.00045569 -0.000457367 -0.000555074 -0.000556144 -0.000457367 -0.00045672 -0.000556144 -0.000554686 -0.000555074 -0.000556144 -0.000646935 -0.000647813 -0.000556144 -0.000554686 -0.000647813 -0.000645825 -0.00045672 -0.000453531 -0.000554686 -0.000550385 -0.000453531 -0.000447541 -0.000550385 -0.000542784 -0.000554686 -0.000550385 -0.000645825 -0.000640599 -0.000550385 -0.000542784 -0.000640599 -0.000631553 -0.000321825 -0.00038848 -0.000371382 -0.000440376 -0.00038848 -0.000445092 -0.000440376 -0.000500166 -0.000371382 -0.000440376 -0.000413318 -0.00048417 -0.000440376 -0.000500166 -0.00048417 -0.000546712 -0.000445092 -0.00049193 -0.000500166 -0.000550915 -0.00049193 -0.000529821 -0.000550915 -0.000593112 -0.000500166 -0.000550915 -0.000546712 -0.000600818 -0.000550915 -0.000593112 -0.000600818 -0.00064674 -0.000413318 -0.00048417 -0.000448192 -0.000520637 -0.00048417 -0.000546712 -0.000520637 -0.000585484 -0.000448192 -0.000520637 -0.000476477 -0.000550346 -0.000520637 -0.000585484 -0.000550346 -0.000617032 -0.000546712 -0.000600818 -0.000585484 -0.000642382 -0.000600818 -0.00064674 -0.000642382 -0.000691415 -0.000585484 -0.000642382 -0.000617032 -0.000676129 -0.000642382 -0.000691415 -0.000676129 -0.000727567 -0.000529821 -0.000559991 -0.000593112 -0.000627605 -0.000559991 -0.000583821 -0.000627605 -0.000655429 -0.000593112 -0.000627605 -0.00064674 -0.000685058 -0.000627605 -0.000655429 -0.000685058 -0.000716552 -0.000583821 -0.00060258 -0.000655429 -0.000677632 -0.00060258 -0.000617303 -0.000677632 -0.000695149 -0.000655429 -0.000677632 -0.000716552 -0.000742067 -0.000677632 -0.000695149 -0.000742067 -0.000762412 -0.00064674 -0.000685058 -0.000691415 -0.000732976 -0.000685058 -0.000716552 -0.000732976 -0.000767673 -0.000691415 -0.000732976 -0.000727567 -0.000771761 -0.000732976 -0.000767673 -0.000771761 -0.000809129 -0.000716552 -0.000742067 -0.000767673 -0.000796175 -0.000742067 -0.000762412 -0.000796175 -0.000819159 -0.000767673 -0.000796175 -0.000809129 -0.00084018 -0.000796175 -0.000819159 -0.00084018 -0.000865467 -0.000476477 -0.000550346 -0.00049884 -0.000573673 -0.000550346 -0.000617032 -0.000573673 -0.000641895 -0.00049884 -0.000573673 -0.000515173 -0.000592438 -0.000573673 -0.000641895 -0.000592438 -0.000658963 -0.000617032 -0.000676129 -0.000641895 -0.000702149 -0.000676129 -0.000727567 -0.000702149 -0.000755389 -0.000641895 -0.000702149 -0.000658963 -0.000720186 -0.000702149 -0.000755389 -0.000720186 -0.000774919 -0.000515173 -0.000592438 -0.000530048 -0.000598235 -0.000592438 -0.000658963 -0.000598235 -0.00066686 -0.000530048 -0.000598235 -0.000502528 -0.000591479 -0.000598235 -0.00066686 -0.000591479 -0.000668139 -0.000658963 -0.000720186 -0.00066686 -0.000730192 -0.000720186 -0.000774919 -0.000730192 -0.00078632 -0.00066686 -0.000730192 -0.000668139 -0.000733165 -0.000730192 -0.00078632 -0.000733165 -0.000790025 -0.000727567 -0.000771761 -0.000755389 -0.000801646 -0.000771761 -0.000809129 -0.000801646 -0.000841141 -0.000755389 -0.000801646 -0.000774919 -0.000822777 -0.000801646 -0.000841141 -0.000822777 -0.000863863 -0.000809129 -0.00084018 -0.000841141 -0.000874243 -0.00084018 -0.000865467 -0.000874243 -0.000901406 -0.000841141 -0.000874243 -0.000863863 -0.000898481 -0.000874243 -0.000901406 -0.000898481 -0.00092703 -0.000774919 -0.000822777 -0.00078632 -0.000835315 -0.000822777 -0.000863863 -0.000835315 -0.000877422 -0.00078632 -0.000835315 -0.000790025 -0.00083946 -0.000835315 -0.000877422 -0.00083946 -0.000881926 -0.000863863 -0.000898481 -0.000877422 -0.000912981 -0.000898481 -0.00092703 -0.000912981 -0.000942385 -0.000877422 -0.000912981 -0.000881926 -0.000917806 -0.000912981 -0.000942385 -0.000917806 -0.000947499 -0.000617303 -0.000628742 -0.000695149 -0.000708727 -0.000628742 -0.000637367 -0.000708727 -0.000718891 -0.000695149 -0.000708727 -0.000762412 -0.000778281 -0.000708727 -0.000718891 -0.000778281 -0.0007902 -0.000637367 -0.000643418 -0.000718891 -0.000725947 -0.000643418 -0.000646935 -0.000725947 -0.000730006 -0.000718891 -0.000725947 -0.0007902 -0.000798503 -0.000725947 -0.000730006 -0.000798503 -0.000803334 -0.000762412 -0.000778281 -0.000819159 -0.000837243 -0.000778281 -0.0007902 -0.000837243 -0.000850922 -0.000819159 -0.000837243 -0.000865467 -0.000885529 -0.000837243 -0.000850922 -0.000885529 -0.000900819 -0.0007902 -0.000798503 -0.000850922 -0.000860531 -0.000798503 -0.000803334 -0.000860531 -0.000866225 -0.000850922 -0.000860531 -0.000900819 -0.000911654 -0.000860531 -0.000866225 -0.000911654 -0.000918185 -0.000646935 -0.000647813 -0.000730006 -0.000731003 -0.000647813 -0.000645825 -0.000731003 -0.00072872 -0.000730006 -0.000731003 -0.000803334 -0.000804655 -0.000731003 -0.00072872 -0.000804655 -0.000802254 -0.000645825 -0.000640599 -0.00072872 -0.000722754 -0.000640599 -0.000631553 -0.000722754 -0.000712466 -0.00072872 -0.000722754 -0.000802254 -0.000795717 -0.000722754 -0.000712466 -0.000795717 -0.0007844 -0.000803334 -0.000804655 -0.000866225 -0.000867976 -0.000804655 -0.000802254 -0.000867976 -0.000865575 -0.000866225 -0.000867976 -0.000918185 -0.000920389 -0.000867976 -0.000865575 -0.000920389 -0.000918056 -0.000802254 -0.000795717 -0.000865575 -0.000858614 -0.000795717 -0.0007844 -0.000858614 -0.000846472 -0.000865575 -0.000858614 -0.000918056 -0.000910792 -0.000858614 -0.000846472 -0.000910792 -0.000898015 -0.000865467 -0.000885529 -0.000901406 -0.000923101 -0.000885529 -0.000900819 -0.000923101 -0.00093974 -0.000901406 -0.000923101 -0.00092703 -0.000949941 -0.000923101 -0.00093974 -0.000949941 -0.000967593 -0.000900819 -0.000911654 -0.00093974 -0.000951619 -0.000911654 -0.000918185 -0.000951619 -0.000958878 -0.00093974 -0.000951619 -0.000967593 -0.000980263 -0.000951619 -0.000958878 -0.000980263 -0.000988081 -0.00092703 -0.000949941 -0.000942385 -0.000966044 -0.000949941 -0.000967593 -0.000966044 -0.000984323 -0.000942385 -0.000966044 -0.000947499 -0.000971412 -0.000966044 -0.000984323 -0.000971412 -0.000989902 -0.000967593 -0.000980263 -0.000984323 -0.000997485 -0.000980263 -0.000988081 -0.000997485 -0.00100565 -0.000984323 -0.000997485 -0.000989902 -0.00100323 -0.000997485 -0.00100565 -0.00100323 -0.00101152 -0.000918185 -0.000920389 -0.000958878 -0.000961493 -0.000920389 -0.000918056 -0.000961493 -0.000959255 -0.000958878 -0.000961493 -0.000988081 -0.000991018 -0.000961493 -0.000959255 -0.000991018 -0.00098887 -0.000918056 -0.000910792 -0.000959255 -0.000951784 -0.000910792 -0.000898015 -0.000951784 -0.000938539 -0.000959255 -0.000951784 -0.00098887 -0.000981266 -0.000951784 -0.000938539 -0.000981266 -0.000967703 -0.000988081 -0.000991018 -0.00100565 -0.0010088 -0.000991018 -0.00098887 -0.0010088 -0.00100671 -0.00100565 -0.0010088 -0.00101152 -0.00101473 -0.0010088 -0.00100671 -0.00101473 -0.00101267 -0.00098887 -0.000981266 -0.00100671 -0.000999032 -0.000981266 -0.000967703 -0.000999032 -0.000985284 -0.00100671 -0.000999032 -0.00101267 -0.00100497 -0.000999032 -0.000985284 -0.00100497 -0.000991158 -0.000223849 -0.000286013 -0.000219325 -0.000281783 -0.000286013 -0.000344219 -0.000281783 -0.000340285 -0.000219325 -0.000281783 -0.000205757 -0.000269088 -0.000281783 -0.000340285 -0.000269088 -0.000328478 -0.000205757 -0.000269088 -0.000183158 -0.000247909 -0.000269088 -0.000328478 -0.000247909 -0.000308763 -0.000183158 -0.000247909 -0.000151546 -0.000218206 -0.000247909 -0.000308763 -0.000218206 -0.000281173 -0.000344219 -0.000397906 -0.000340285 -0.000394255 -0.000397906 -0.000446539 -0.000394255 -0.00044314 -0.000340285 -0.000394255 -0.000328478 -0.00038329 -0.000394255 -0.00044314 -0.00038329 -0.000432931 -0.000446539 -0.000489646 -0.00044314 -0.000486459 -0.000489646 -0.000526862 -0.000486459 -0.000523836 -0.00044314 -0.000486459 -0.000432931 -0.000476883 -0.000486459 -0.000523836 -0.000476883 -0.000514747 -0.000328478 -0.00038329 -0.000308763 -0.000364988 -0.00038329 -0.000432931 -0.000364988 -0.000415873 -0.000308763 -0.000364988 -0.000281173 -0.000339267 -0.000364988 -0.000415873 -0.000339267 -0.000391911 -0.000432931 -0.000476883 -0.000415873 -0.000460882 -0.000476883 -0.000514747 -0.000460882 -0.000499549 -0.000415873 -0.000460882 -0.000391911 -0.000438389 -0.000460882 -0.000499549 -0.000438389 -0.000478158 -0.000281173 -0.000339267 -0.000245715 -0.00030612 -0.000339267 -0.000391911 -0.00030612 -0.00036096 -0.000245715 -0.00030612 -0.000201974 -0.000265347 -0.00030612 -0.00036096 -0.000265347 -0.000322819 -0.000391911 -0.000438389 -0.00036096 -0.000409281 -0.000438389 -0.000478158 -0.000409281 -0.000450417 -0.00036096 -0.000409281 -0.000322819 -0.000373331 -0.000409281 -0.000450417 -0.000373331 -0.000416063 -0.000201974 -0.000265347 -0.000149849 -0.000216568 -0.000265347 -0.000322819 -0.000216568 -0.000277118 -0.000149849 -0.000216568 -8.90304e-05 -0.000159247 -0.000216568 -0.000277118 -0.000159247 -0.000223291 -0.000322819 -0.000373331 -0.000277118 -0.000330158 -0.000373331 -0.000416063 -0.000330158 -0.000374669 -0.000277118 -0.000330158 -0.000223291 -0.000279116 -0.000330158 -0.000374669 -0.000279116 -0.00032562 -0.000223291 -0.000279116 -0.000160751 -0.000219491 -0.000279116 -0.00032562 -0.000219491 -0.000268038 -0.000160751 -0.000219491 -8.78538e-05 -0.0001499 -0.000219491 -0.000268038 -0.0001499 -0.000200423 -0.000526862 -0.000557939 -0.000523836 -0.000555022 -0.000557939 -0.000582841 -0.000555022 -0.000579979 -0.000523836 -0.000555022 -0.000514747 -0.000546256 -0.000555022 -0.000579979 -0.000546256 -0.00057137 -0.000582841 -0.000601774 -0.000579979 -0.000598915 -0.000601774 -0.000615124 -0.000598915 -0.000612222 -0.000579979 -0.000598915 -0.00057137 -0.000590306 -0.000598915 -0.000612222 -0.000590306 -0.000603483 -0.000514747 -0.000546256 -0.000499549 -0.000531583 -0.000546256 -0.00057137 -0.000531583 -0.000556939 -0.000499549 -0.000531583 -0.000478158 -0.000510891 -0.000531583 -0.000556939 -0.000510891 -0.000536544 -0.00057137 -0.000590306 -0.000556939 -0.000575854 -0.000590306 -0.000603483 -0.000575854 -0.000588796 -0.000556939 -0.000575854 -0.000536544 -0.000555389 -0.000575854 -0.000588796 -0.000555389 -0.000567967 -0.000615124 -0.000623432 -0.000612222 -0.000620456 -0.000623432 -0.000627363 -0.000620456 -0.000624293 -0.000612222 -0.000620456 -0.000603483 -0.00061149 -0.000620456 -0.000624293 -0.00061149 -0.000615043 -0.000627363 -0.000627653 -0.000624293 -0.000624481 -0.000627653 -0.000625043 -0.000624481 -0.000621773 -0.000624293 -0.000624481 -0.000615043 -0.000614928 -0.000624481 -0.000621773 -0.000614928 -0.000611929 -0.000603483 -0.00061149 -0.000588796 -0.000596414 -0.00061149 -0.000615043 -0.000596414 -0.000599492 -0.000588796 -0.000596414 -0.000567967 -0.000575021 -0.000596414 -0.000599492 -0.000575021 -0.000577432 -0.000615043 -0.000614928 -0.000599492 -0.000598877 -0.000614928 -0.000611929 -0.000598877 -0.000595408 -0.000599492 -0.000598877 -0.000577432 -0.000576134 -0.000598877 -0.000595408 -0.000576134 -0.000572045 -0.000478158 -0.000510891 -0.000450417 -0.000483988 -0.000510891 -0.000536544 -0.000483988 -0.000509951 -0.000450417 -0.000483988 -0.000416063 -0.000450564 -0.000483988 -0.000509951 -0.000450564 -0.000476806 -0.000536544 -0.000555389 -0.000509951 -0.000528638 -0.000555389 -0.000567967 -0.000528638 -0.000540695 -0.000509951 -0.000528638 -0.000476806 -0.0004952 -0.000528638 -0.000540695 -0.0004952 -0.000506545 -0.000416063 -0.000450564 -0.000374669 -0.000410153 -0.000450564 -0.000476806 -0.000410153 -0.00043658 -0.000374669 -0.000410153 -0.00032562 -0.000362064 -0.000410153 -0.00043658 -0.000362064 -0.000388505 -0.000476806 -0.0004952 -0.00043658 -0.000454496 -0.0004952 -0.000506545 -0.000454496 -0.000464907 -0.00043658 -0.000454496 -0.000388505 -0.000405697 -0.000454496 -0.000464907 -0.000405697 -0.000414942 -0.000567967 -0.000575021 -0.000540695 -0.000546996 -0.000575021 -0.000577432 -0.000546996 -0.000548556 -0.000540695 -0.000546996 -0.000506545 -0.000511896 -0.000546996 -0.000548556 -0.000511896 -0.000512446 -0.000577432 -0.000576134 -0.000548556 -0.000546424 -0.000576134 -0.000572045 -0.000546424 -0.00054161 -0.000548556 -0.000546424 -0.000512446 -0.000509384 -0.000546424 -0.00054161 -0.000509384 -0.000503825 -0.000506545 -0.000511896 -0.000464907 -0.000469122 -0.000511896 -0.000512446 -0.000469122 -0.000468559 -0.000464907 -0.000469122 -0.000414942 -0.000417875 -0.000469122 -0.000468559 -0.000417875 -0.000416212 -0.000512446 -0.000509384 -0.000468559 -0.000464574 -0.000509384 -0.000503825 -0.000464574 -0.000458376 -0.000468559 -0.000464574 -0.000416212 -0.000411481 -0.000464574 -0.000458376 -0.000411481 -0.000404953 -0.000625043 -0.000620269 -0.000621773 -0.000616913 -0.000620269 -0.000613977 -0.000616913 -0.000610554 -0.000621773 -0.000616913 -0.000611929 -0.000606818 -0.000616913 -0.000610554 -0.000606818 -0.000600263 -0.000613977 -0.000606676 -0.000610554 -0.000603208 -0.000606676 -0.000598715 -0.000603208 -0.000595225 -0.000610554 -0.000603208 -0.000600263 -0.000592787 -0.000603208 -0.000595225 -0.000592787 -0.000584743 -0.000611929 -0.000606818 -0.000595408 -0.000589899 -0.000606818 -0.000600263 -0.000589899 -0.000583042 -0.000595408 -0.000589899 -0.000572045 -0.000566026 -0.000589899 -0.000583042 -0.000566026 -0.000558798 -0.000600263 -0.000592787 -0.000583042 -0.000575372 -0.000592787 -0.000584743 -0.000575372 -0.000567246 -0.000583042 -0.000575372 -0.000558798 -0.000550908 -0.000575372 -0.000567246 -0.000550908 -0.000542712 -0.000598715 -0.000590253 -0.000595225 -0.000586763 -0.000590253 -0.000581245 -0.000586763 -0.000577776 -0.000595225 -0.000586763 -0.000584743 -0.000576288 -0.000586763 -0.000577776 -0.000576288 -0.000567368 -0.000581245 -0.00057144 -0.000577776 -0.000568007 -0.00057144 -0.000560391 -0.000568007 -0.000557001 -0.000577776 -0.000568007 -0.000567368 -0.000557711 -0.000568007 -0.000557001 -0.000557711 -0.000546836 -0.000584743 -0.000576288 -0.000567246 -0.000558818 -0.000576288 -0.0005