# vtk DataFile Version 3.0
#This file was generated by the deal.II library on 2022/11/17 at 1:31:05
ASCII
DATASET UNSTRUCTURED_GRID

POINTS 10288 double
0.4375 0.75 0
0.46875 0.75 0
0.4375 0.78125 0
0.46875 0.78125 0
0.46875 0.75 0
0.5 0.75 0
0.46875 0.78125 0
0.5 0.78125 0
0.4375 0.78125 0
0.46875 0.78125 0
0.4375 0.8125 0
0.46875 0.8125 0
0.46875 0.78125 0
0.5 0.78125 0
0.46875 0.8125 0
0.5 0.8125 0
0.4375 0.8125 0
0.46875 0.8125 0
0.4375 0.84375 0
0.46875 0.84375 0
0.46875 0.8125 0
0.5 0.8125 0
0.46875 0.84375 0
0.5 0.84375 0
0.4375 0.84375 0
0.46875 0.84375 0
0.4375 0.875 0
0.46875 0.875 0
0.46875 0.84375 0
0.5 0.84375 0
0.46875 0.875 0
0.5 0.875 0
0.375 0.875 0
0.40625 0.875 0
0.375 0.90625 0
0.40625 0.90625 0
0.40625 0.875 0
0.4375 0.875 0
0.40625 0.90625 0
0.4375 0.90625 0
0.375 0.90625 0
0.40625 0.90625 0
0.375 0.9375 0
0.40625 0.9375 0
0.40625 0.90625 0
0.4375 0.90625 0
0.40625 0.9375 0
0.4375 0.9375 0
0.4375 0.875 0
0.46875 0.875 0
0.4375 0.90625 0
0.46875 0.90625 0
0.46875 0.875 0
0.5 0.875 0
0.46875 0.90625 0
0.5 0.90625 0
0.4375 0.90625 0
0.46875 0.90625 0
0.4375 0.9375 0
0.46875 0.9375 0
0.46875 0.90625 0
0.5 0.90625 0
0.46875 0.9375 0
0.5 0.9375 0
0.625 0.5 0
0.65625 0.5 0
0.625 0.53125 0
0.65625 0.53125 0
0.65625 0.5 0
0.6875 0.5 0
0.65625 0.53125 0
0.6875 0.53125 0
0.625 0.53125 0
0.65625 0.53125 0
0.625 0.5625 0
0.65625 0.5625 0
0.65625 0.53125 0
0.6875 0.53125 0
0.65625 0.5625 0
0.6875 0.5625 0
0.6875 0.5 0
0.71875 0.5 0
0.6875 0.53125 0
0.71875 0.53125 0
0.71875 0.5 0
0.75 0.5 0
0.71875 0.53125 0
0.75 0.53125 0
0.6875 0.53125 0
0.71875 0.53125 0
0.6875 0.5625 0
0.71875 0.5625 0
0.71875 0.53125 0
0.75 0.53125 0
0.71875 0.5625 0
0.75 0.5625 0
0.625 0.5625 0
0.65625 0.5625 0
0.625 0.59375 0
0.65625 0.59375 0
0.65625 0.5625 0
0.6875 0.5625 0
0.65625 0.59375 0
0.6875 0.59375 0
0.625 0.59375 0
0.65625 0.59375 0
0.625 0.625 0
0.65625 0.625 0
0.65625 0.59375 0
0.6875 0.59375 0
0.65625 0.625 0
0.6875 0.625 0
0.6875 0.5625 0
0.71875 0.5625 0
0.6875 0.59375 0
0.71875 0.59375 0
0.71875 0.5625 0
0.75 0.5625 0
0.71875 0.59375 0
0.75 0.59375 0
0.6875 0.59375 0
0.71875 0.59375 0
0.6875 0.625 0
0.71875 0.625 0
0.71875 0.59375 0
0.75 0.59375 0
0.71875 0.625 0
0.75 0.625 0
0.5625 0.625 0
0.59375 0.625 0
0.5625 0.65625 0
0.59375 0.65625 0
0.59375 0.625 0
0.625 0.625 0
0.59375 0.65625 0
0.625 0.65625 0
0.5625 0.65625 0
0.59375 0.65625 0
0.5625 0.6875 0
0.59375 0.6875 0
0.59375 0.65625 0
0.625 0.65625 0
0.59375 0.6875 0
0.625 0.6875 0
0.5 0.6875 0
0.53125 0.6875 0
0.5 0.71875 0
0.53125 0.71875 0
0.53125 0.6875 0
0.5625 0.6875 0
0.53125 0.71875 0
0.5625 0.71875 0
0.5 0.71875 0
0.53125 0.71875 0
0.5 0.75 0
0.53125 0.75 0
0.53125 0.71875 0
0.5625 0.71875 0
0.53125 0.75 0
0.5625 0.75 0
0.5625 0.6875 0
0.59375 0.6875 0
0.5625 0.71875 0
0.59375 0.71875 0
0.59375 0.6875 0
0.625 0.6875 0
0.59375 0.71875 0
0.625 0.71875 0
0.5625 0.71875 0
0.59375 0.71875 0
0.5625 0.75 0
0.59375 0.75 0
0.59375 0.71875 0
0.625 0.71875 0
0.59375 0.75 0
0.625 0.75 0
0.625 0.625 0
0.65625 0.625 0
0.625 0.65625 0
0.65625 0.65625 0
0.65625 0.625 0
0.6875 0.625 0
0.65625 0.65625 0
0.6875 0.65625 0
0.625 0.65625 0
0.65625 0.65625 0
0.625 0.6875 0
0.65625 0.6875 0
0.65625 0.65625 0
0.6875 0.65625 0
0.65625 0.6875 0
0.6875 0.6875 0
0.6875 0.625 0
0.71875 0.625 0
0.6875 0.65625 0
0.71875 0.65625 0
0.71875 0.625 0
0.75 0.625 0
0.71875 0.65625 0
0.75 0.65625 0
0.6875 0.65625 0
0.71875 0.65625 0
0.6875 0.6875 0
0.71875 0.6875 0
0.71875 0.65625 0
0.75 0.65625 0
0.71875 0.6875 0
0.75 0.6875 0
0.625 0.6875 0
0.65625 0.6875 0
0.625 0.71875 0
0.65625 0.71875 0
0.65625 0.6875 0
0.6875 0.6875 0
0.65625 0.71875 0
0.6875 0.71875 0
0.625 0.71875 0
0.65625 0.71875 0
0.625 0.75 0
0.65625 0.75 0
0.65625 0.71875 0
0.6875 0.71875 0
0.65625 0.75 0
0.6875 0.75 0
0.6875 0.6875 0
0.71875 0.6875 0
0.6875 0.71875 0
0.71875 0.71875 0
0.71875 0.6875 0
0.75 0.6875 0
0.71875 0.71875 0
0.75 0.71875 0
0.6875 0.71875 0
0.71875 0.71875 0
0.6875 0.75 0
0.71875 0.75 0
0.71875 0.71875 0
0.75 0.71875 0
0.71875 0.75 0
0.75 0.75 0
0.75 0.5 0
0.78125 0.5 0
0.75 0.53125 0
0.78125 0.53125 0
0.78125 0.5 0
0.8125 0.5 0
0.78125 0.53125 0
0.8125 0.53125 0
0.75 0.53125 0
0.78125 0.53125 0
0.75 0.5625 0
0.78125 0.5625 0
0.78125 0.53125 0
0.8125 0.53125 0
0.78125 0.5625 0
0.8125 0.5625 0
0.8125 0.5 0
0.84375 0.5 0
0.8125 0.53125 0
0.84375 0.53125 0
0.84375 0.5 0
0.875 0.5 0
0.84375 0.53125 0
0.875 0.53125 0
0.8125 0.53125 0
0.84375 0.53125 0
0.8125 0.5625 0
0.84375 0.5625 0
0.84375 0.53125 0
0.875 0.53125 0
0.84375 0.5625 0
0.875 0.5625 0
0.75 0.5625 0
0.78125 0.5625 0
0.75 0.59375 0
0.78125 0.59375 0
0.78125 0.5625 0
0.8125 0.5625 0
0.78125 0.59375 0
0.8125 0.59375 0
0.75 0.59375 0
0.78125 0.59375 0
0.75 0.625 0
0.78125 0.625 0
0.78125 0.59375 0
0.8125 0.59375 0
0.78125 0.625 0
0.8125 0.625 0
0.8125 0.5625 0
0.84375 0.5625 0
0.8125 0.59375 0
0.84375 0.59375 0
0.84375 0.5625 0
0.875 0.5625 0
0.84375 0.59375 0
0.875 0.59375 0
0.8125 0.59375 0
0.84375 0.59375 0
0.8125 0.625 0
0.84375 0.625 0
0.84375 0.59375 0
0.875 0.59375 0
0.84375 0.625 0
0.875 0.625 0
0.875 0.5 0
0.90625 0.5 0
0.875 0.53125 0
0.90625 0.53125 0
0.90625 0.5 0
0.9375 0.5 0
0.90625 0.53125 0
0.9375 0.53125 0
0.875 0.53125 0
0.90625 0.53125 0
0.875 0.5625 0
0.90625 0.5625 0
0.90625 0.53125 0
0.9375 0.53125 0
0.90625 0.5625 0
0.9375 0.5625 0
0.9375 0.5 0
0.96875 0.5 0
0.9375 0.53125 0
0.96875 0.53125 0
0.96875 0.5 0
1 0.5 0
0.96875 0.53125 0
1 0.53125 0
0.9375 0.53125 0
0.96875 0.53125 0
0.9375 0.5625 0
0.96875 0.5625 0
0.96875 0.53125 0
1 0.53125 0
0.96875 0.5625 0
1 0.5625 0
0.875 0.5625 0
0.90625 0.5625 0
0.875 0.59375 0
0.90625 0.59375 0
0.90625 0.5625 0
0.9375 0.5625 0
0.90625 0.59375 0
0.9375 0.59375 0
0.875 0.59375 0
0.90625 0.59375 0
0.875 0.625 0
0.90625 0.625 0
0.90625 0.59375 0
0.9375 0.59375 0
0.90625 0.625 0
0.9375 0.625 0
0.9375 0.5625 0
0.96875 0.5625 0
0.9375 0.59375 0
0.96875 0.59375 0
0.96875 0.5625 0
1 0.5625 0
0.96875 0.59375 0
1 0.59375 0
0.9375 0.59375 0
0.96875 0.59375 0
0.9375 0.625 0
0.96875 0.625 0
0.96875 0.59375 0
1 0.59375 0
0.96875 0.625 0
1 0.625 0
0.75 0.625 0
0.78125 0.625 0
0.75 0.65625 0
0.78125 0.65625 0
0.78125 0.625 0
0.8125 0.625 0
0.78125 0.65625 0
0.8125 0.65625 0
0.75 0.65625 0
0.78125 0.65625 0
0.75 0.6875 0
0.78125 0.6875 0
0.78125 0.65625 0
0.8125 0.65625 0
0.78125 0.6875 0
0.8125 0.6875 0
0.8125 0.625 0
0.84375 0.625 0
0.8125 0.65625 0
0.84375 0.65625 0
0.84375 0.625 0
0.875 0.625 0
0.84375 0.65625 0
0.875 0.65625 0
0.8125 0.65625 0
0.84375 0.65625 0
0.8125 0.6875 0
0.84375 0.6875 0
0.84375 0.65625 0
0.875 0.65625 0
0.84375 0.6875 0
0.875 0.6875 0
0.75 0.6875 0
0.78125 0.6875 0
0.75 0.71875 0
0.78125 0.71875 0
0.78125 0.6875 0
0.8125 0.6875 0
0.78125 0.71875 0
0.8125 0.71875 0
0.75 0.71875 0
0.78125 0.71875 0
0.75 0.75 0
0.78125 0.75 0
0.78125 0.71875 0
0.8125 0.71875 0
0.78125 0.75 0
0.8125 0.75 0
0.8125 0.6875 0
0.84375 0.6875 0
0.8125 0.71875 0
0.84375 0.71875 0
0.84375 0.6875 0
0.875 0.6875 0
0.84375 0.71875 0
0.875 0.71875 0
0.8125 0.71875 0
0.84375 0.71875 0
0.8125 0.75 0
0.84375 0.75 0
0.84375 0.71875 0
0.875 0.71875 0
0.84375 0.75 0
0.875 0.75 0
0.875 0.625 0
0.90625 0.625 0
0.875 0.65625 0
0.90625 0.65625 0
0.90625 0.625 0
0.9375 0.625 0
0.90625 0.65625 0
0.9375 0.65625 0
0.875 0.65625 0
0.90625 0.65625 0
0.875 0.6875 0
0.90625 0.6875 0
0.90625 0.65625 0
0.9375 0.65625 0
0.90625 0.6875 0
0.9375 0.6875 0
0.9375 0.625 0
0.96875 0.625 0
0.9375 0.65625 0
0.96875 0.65625 0
0.96875 0.625 0
1 0.625 0
0.96875 0.65625 0
1 0.65625 0
0.9375 0.65625 0
0.96875 0.65625 0
0.9375 0.6875 0
0.96875 0.6875 0
0.96875 0.65625 0
1 0.65625 0
0.96875 0.6875 0
1 0.6875 0
0.875 0.6875 0
0.90625 0.6875 0
0.875 0.71875 0
0.90625 0.71875 0
0.90625 0.6875 0
0.9375 0.6875 0
0.90625 0.71875 0
0.9375 0.71875 0
0.875 0.71875 0
0.90625 0.71875 0
0.875 0.75 0
0.90625 0.75 0
0.90625 0.71875 0
0.9375 0.71875 0
0.90625 0.75 0
0.9375 0.75 0
0.9375 0.6875 0
0.96875 0.6875 0
0.9375 0.71875 0
0.96875 0.71875 0
0.96875 0.6875 0
1 0.6875 0
0.96875 0.71875 0
1 0.71875 0
0.9375 0.71875 0
0.96875 0.71875 0
0.9375 0.75 0
0.96875 0.75 0
0.96875 0.71875 0
1 0.71875 0
0.96875 0.75 0
1 0.75 0
0.5 0.75 0
0.53125 0.75 0
0.5 0.78125 0
0.53125 0.78125 0
0.53125 0.75 0
0.5625 0.75 0
0.53125 0.78125 0
0.5625 0.78125 0
0.5 0.78125 0
0.53125 0.78125 0
0.5 0.8125 0
0.53125 0.8125 0
0.53125 0.78125 0
0.5625 0.78125 0
0.53125 0.8125 0
0.5625 0.8125 0
0.5625 0.75 0
0.59375 0.75 0
0.5625 0.78125 0
0.59375 0.78125 0
0.59375 0.75 0
0.625 0.75 0
0.59375 0.78125 0
0.625 0.78125 0
0.5625 0.78125 0
0.59375 0.78125 0
0.5625 0.8125 0
0.59375 0.8125 0
0.59375 0.78125 0
0.625 0.78125 0
0.59375 0.8125 0
0.625 0.8125 0
0.5 0.8125 0
0.53125 0.8125 0
0.5 0.84375 0
0.53125 0.84375 0
0.53125 0.8125 0
0.5625 0.8125 0
0.53125 0.84375 0
0.5625 0.84375 0
0.5 0.84375 0
0.53125 0.84375 0
0.5 0.875 0
0.53125 0.875 0
0.53125 0.84375 0
0.5625 0.84375 0
0.53125 0.875 0
0.5625 0.875 0
0.5625 0.8125 0
0.59375 0.8125 0
0.5625 0.84375 0
0.59375 0.84375 0
0.59375 0.8125 0
0.625 0.8125 0
0.59375 0.84375 0
0.625 0.84375 0
0.5625 0.84375 0
0.59375 0.84375 0
0.5625 0.875 0
0.59375 0.875 0
0.59375 0.84375 0
0.625 0.84375 0
0.59375 0.875 0
0.625 0.875 0
0.625 0.75 0
0.65625 0.75 0
0.625 0.78125 0
0.65625 0.78125 0
0.65625 0.75 0
0.6875 0.75 0
0.65625 0.78125 0
0.6875 0.78125 0
0.625 0.78125 0
0.65625 0.78125 0
0.625 0.8125 0
0.65625 0.8125 0
0.65625 0.78125 0
0.6875 0.78125 0
0.65625 0.8125 0
0.6875 0.8125 0
0.6875 0.75 0
0.71875 0.75 0
0.6875 0.78125 0
0.71875 0.78125 0
0.71875 0.75 0
0.75 0.75 0
0.71875 0.78125 0
0.75 0.78125 0
0.6875 0.78125 0
0.71875 0.78125 0
0.6875 0.8125 0
0.71875 0.8125 0
0.71875 0.78125 0
0.75 0.78125 0
0.71875 0.8125 0
0.75 0.8125 0
0.625 0.8125 0
0.65625 0.8125 0
0.625 0.84375 0
0.65625 0.84375 0
0.65625 0.8125 0
0.6875 0.8125 0
0.65625 0.84375 0
0.6875 0.84375 0
0.625 0.84375 0
0.65625 0.84375 0
0.625 0.875 0
0.65625 0.875 0
0.65625 0.84375 0
0.6875 0.84375 0
0.65625 0.875 0
0.6875 0.875 0
0.6875 0.8125 0
0.71875 0.8125 0
0.6875 0.84375 0
[...]
POINT_DATA 10288
SCALARS x_dis double 1
LOOKUP_TABLE default
6.72354e-05 0.000101867 2.67517e-05 6.93729e-05 0.000101867 0.000133763 6.93729e-05 0.00010918 2.67517e-05 6.93729e-05 -1.21046e-05 3.82676e-05 6.93729e-05 0.00010918 3.82676e-05 8.54559e-05 -1.21046e-05 3.82676e-05 -4.76714e-05 9.65127e-06 3.82676e-05 8.54559e-05 9.65127e-06 6.34086e-05 -4.76714e-05 9.65127e-06 -7.83973e-05 -1.54203e-05 9.65127e-06 6.34086e-05 -1.54203e-05 4.38954e-05 -0.000214573 -0.000144825 -0.000249791 -0.000175355 -0.000144825 -7.83973e-05 -0.000175355 -0.00010402 -0.000249791 -0.000175355 -0.000275837 -0.000198047 -0.000175355 -0.00010402 -0.000198047 -0.000123343 -7.83973e-05 -1.54203e-05 -0.00010402 -3.6258e-05 -1.54203e-05 4.38954e-05 -3.6258e-05 2.7649e-05 -0.00010402 -3.6258e-05 -0.000123343 -5.21325e-05 -3.6258e-05 2.7649e-05 -5.21325e-05 1.523e-05 0.000227282 0.000190649 0.00022785 0.00020816 0.000190649 0.000165877 0.00020816 0.000191722 0.00022785 0.00020816 0.00021576 0.000213652 0.00020816 0.000191722 0.000213652 0.000208229 0.000165877 0.000147932 0.000191722 0.000178656 0.000147932 0.000134475 0.000178656 0.000168428 0.000191722 0.000178656 0.000208229 0.000202383 0.000178656 0.000168428 0.000202383 0.000197153 0.00021576 0.000213652 0.000213676 0.000218797 0.000213652 0.000208229 0.000218797 0.000221392 0.000213676 0.000218797 0.000218888 0.000227085 0.000218797 0.000221392 0.000227085 0.000234559 0.000208229 0.000202383 0.000221392 0.000222251 0.000202383 0.000197153 0.000222251 0.000222328 0.000221392 0.000222251 0.000234559 0.000240649 0.000222251 0.000222328 0.000240649 0.000245501 0.000209287 0.000211883 0.000209023 0.000216222 0.000211883 0.000218888 0.000216222 0.000225992 0.000209023 0.000216222 0.000205469 0.000218486 0.000216222 0.000225992 0.000218486 0.000232672 0.000179424 0.000192809 0.000157412 0.000178767 0.000192809 0.000205469 0.000178767 0.000198811 0.000157412 0.000178767 0.000133763 0.000163002 0.000178767 0.000198811 0.000163002 0.000190399 0.000205469 0.000218486 0.000198811 0.000218407 0.000218486 0.000232672 0.000218407 0.000237908 0.000198811 0.000218407 0.000190399 0.000216494 0.000218407 0.000237908 0.000216494 0.000241587 0.000218888 0.000227085 0.000225992 0.000237233 0.000227085 0.000234559 0.000237233 0.000248409 0.000225992 0.000237233 0.000232672 0.000247604 0.000237233 0.000248409 0.000247604 0.00026243 0.000234559 0.000240649 0.000248409 0.000258651 0.000240649 0.000245501 0.000258651 0.000267628 0.000248409 0.000258651 0.00026243 0.000276401 0.000258651 0.000267628 0.000276401 0.000289072 0.000232672 0.000247604 0.000237908 0.00025724 0.000247604 0.00026243 0.00025724 0.000275981 0.000237908 0.00025724 0.000241587 0.000265687 0.00025724 0.000275981 0.000265687 0.000288589 0.00026243 0.000276401 0.000275981 0.000293635 0.000276401 0.000289072 0.000293635 0.000309797 0.000275981 0.000293635 0.000288589 0.000309983 0.000293635 0.000309797 0.000309983 0.000329554 0.000134475 0.000124227 0.000168428 0.000160493 0.000124227 0.000116426 0.000160493 0.00015441 0.000168428 0.000160493 0.000197153 0.00019284 0.000160493 0.00015441 0.00019284 0.000189454 0.000116426 0.00011058 0.00015441 0.000149835 0.00011058 0.000106342 0.000149835 0.000146498 0.00015441 0.000149835 0.000189454 0.000186902 0.000149835 0.000146498 0.000186902 0.000185065 0.000197153 0.00019284 0.000222328 0.000222164 0.00019284 0.000189454 0.000222164 0.000222012 0.000222328 0.000222164 0.000245501 0.000249422 0.000222164 0.000222012 0.000249422 0.000252646 0.000189454 0.000186902 0.000222012 0.000221965 0.000186902 0.000185065 0.000221965 0.000222034 0.000222012 0.000221965 0.000252646 0.000255313 0.000221965 0.000222034 0.000255313 0.000257501 0.000106342 0.000103446 0.000146498 0.000144183 0.000103446 0.000101648 0.000144183 0.000142707 0.000146498 0.000144183 0.000185065 0.000183827 0.000144183 0.000142707 0.000183827 0.000183082 0.000101648 0.000100698 0.000142707 0.000141911 0.000100698 0.000100369 0.000141911 0.000141611 0.000142707 0.000141911 0.000183082 0.000182713 0.000141911 0.000141611 0.000182713 0.000182539 0.000185065 0.000183827 0.000222034 0.000222199 0.000183827 0.000183082 0.000222199 0.000222419 0.000222034 0.000222199 0.000257501 0.000259246 0.000222199 0.000222419 0.000259246 0.000260561 0.000183082 0.000182713 0.000222419 0.000222627 0.000182713 0.000182539 0.000222627 0.00022268 0.000222419 0.000222627 0.000260561 0.000261423 0.000222627 0.00022268 0.000261423 0.000261762 0.000245501 0.000249422 0.000267628 0.000275325 0.000249422 0.000252646 0.000275325 0.000281826 0.000267628 0.000275325 0.000289072 0.000300233 0.000275325 0.000281826 0.000300233 0.000309827 0.000252646 0.000255313 0.000281826 0.000287223 0.000255313 0.000257501 0.000287223 0.000291591 0.000281826 0.000287223 0.000309827 0.000317863 0.000287223 0.000291591 0.000317863 0.000324378 0.000289072 0.000300233 0.000309797 0.000324198 0.000300233 0.000309827 0.000324198 0.000336698 0.000309797 0.000324198 0.000329554 0.000347043 0.000324198 0.000336698 0.000347043 0.000362289 0.000309827 0.000317863 0.000336698 0.000347244 0.000317863 0.000324378 0.000347244 0.000355827 0.000336698 0.000347244 0.000362289 0.000375211 0.000347244 0.000355827 0.000375211 0.000385766 0.000257501 0.000259246 0.000291591 0.000294985 0.000259246 0.000260561 0.000294985 0.000297445 0.000291591 0.000294985 0.000324378 0.000329417 0.000294985 0.000297445 0.000329417 0.000333026 0.000260561 0.000261423 0.000297445 0.000298994 0.000261423 0.000261762 0.000298994 0.000299638 0.000297445 0.000298994 0.000333026 0.000335259 0.000298994 0.000299638 0.000335259 0.000336189 0.000324378 0.000329417 0.000355827 0.000362465 0.000329417 0.000333026 0.000362465 0.000367195 0.000355827 0.000362465 0.000385766 0.000393937 0.000362465 0.000367195 0.000393937 0.000399744 0.000333026 0.000335259 0.000367195 0.000370086 0.000335259 0.000336189 0.000370086 0.000371256 0.000367195 0.000370086 0.000399744 0.00040325 0.000370086 0.000371256 0.00040325 0.000404596 0.000133763 0.000163002 0.00010918 0.000146225 0.000163002 0.000190399 0.000146225 0.000180742 0.00010918 0.000146225 8.54559e-05 0.00012948 0.000146225 0.000180742 0.00012948 0.000170519 0.000190399 0.000216494 0.000180742 0.000213173 0.000216494 0.000241587 0.000213173 0.000243812 0.000180742 0.000213173 0.000170519 0.000208843 0.000213173 0.000243812 0.000208843 0.000244721 8.54559e-05 0.00012948 6.34086e-05 0.000113629 0.00012948 0.000170519 0.000113629 0.000160428 6.34086e-05 0.000113629 4.38954e-05 9.94325e-05 0.000113629 0.000160428 9.94325e-05 0.000151192 0.000170519 0.000208843 0.000160428 0.000203989 0.000208843 0.000244721 0.000203989 0.00024455 0.000160428 0.000203989 0.000151192 0.000199265 0.000203989 0.00024455 0.000199265 0.000243799 0.000241587 0.000265687 0.000243812 0.00027275 0.000265687 0.000288589 0.00027275 0.000299902 0.000243812 0.00027275 0.000244721 0.000278313 0.00027275 0.000299902 0.000278313 0.000309632 0.000288589 0.000309983 0.000299902 0.000325067 0.000309983 0.000329554 0.000325067 0.000347991 0.000299902 0.000325067 0.000309632 0.000338521 0.000325067 0.000347991 0.000338521 0.000364724 0.000244721 0.000278313 0.00024455 0.000282366 0.000278313 0.000309632 0.000282366 0.000317571 0.00024455 0.000282366 0.000243799 0.000285103 0.000282366 0.000317571 0.000285103 0.000323701 0.000309632 0.000338521 0.000317571 0.000350064 0.000338521 0.000364724 0.000350064 0.000379407 0.000317571 0.000350064 0.000323701 0.00035951 0.000350064 0.000379407 0.00035951 0.000391885 4.38954e-05 9.94325e-05 2.7649e-05 8.75882e-05 9.94325e-05 0.000151192 8.75882e-05 0.000143516 2.7649e-05 8.75882e-05 1.523e-05 7.85768e-05 8.75882e-05 0.000143516 7.85768e-05 0.000137844 0.000151192 0.000199265 0.000143516 0.000195439 0.000199265 0.000243799 0.000195439 0.000243355 0.000143516 0.000195439 0.000137844 0.000193073 0.000195439 0.000243355 0.000193073 0.000244139 0.000243799 0.000285103 0.000243355 0.000287201 0.000285103 0.000323701 0.000287201 0.000327783 0.000243355 0.000287201 0.000244139 0.000290423 0.000287201 0.000327783 0.000290423 0.000330457 0.000323701 0.00035951 0.000327783 0.000366933 0.00035951 0.000391885 0.000366933 0.00040169 0.000327783 0.000366933 0.000330457 0.000369334 0.000366933 0.00040169 0.000369334 0.000409275 0.000329554 0.000347043 0.000347991 0.000368447 0.000347043 0.000362289 0.000368447 0.000386295 0.000347991 0.000368447 0.000364724 0.000388012 0.000368447 0.000386295 0.000388012 0.000408311 0.000362289 0.000375211 0.000386295 0.000401461 0.000375211 0.000385766 0.000401461 0.000413885 0.000386295 0.000401461 0.000408311 0.000425586 0.000401461 0.000413885 0.000425586 0.00043978 0.000364724 0.000388012 0.000379407 0.000405348 0.000388012 0.000408311 0.000405348 0.000427884 0.000379407 0.000405348 0.000391885 0.000420034 0.000405348 0.000427884 0.000420034 0.000444624 0.000408311 0.000425586 0.000427884 0.000447143 0.000425586 0.00043978 0.000447143 0.000462998 0.000427884 0.000447143 0.000444624 0.000465707 0.000447143 0.000462998 0.000465707 0.000483161 0.000385766 0.000393937 0.000413885 0.000423519 0.000393937 0.000399744 0.000423519 0.000430345 0.000413885 0.000423519 0.00043978 0.000450795 0.000423519 0.000430345 0.000450795 0.000458575 0.000399744 0.00040325 0.000430345 0.000434414 0.00040325 0.000404596 0.000434414 0.000435865 0.000430345 0.000434414 0.000458575 0.000463143 0.000434414 0.000435865 0.000463143 0.000464629 0.00043978 0.000450795 0.000462998 0.000475302 0.000450795 0.000458575 0.000475302 0.00048394 0.000462998 0.000475302 0.000483161 0.000496575 0.000475302 0.00048394 0.000496575 0.000505914 0.000458575 0.000463143 0.00048394 0.00048893 0.000463143 0.000464629 0.00048893 0.000490387 0.00048394 0.00048893 0.000505914 0.000511222 0.00048893 0.000490387 0.000511222 0.000512594 0.000391885 0.000420034 0.00040169 0.000431892 0.000420034 0.000444624 0.000431892 0.000457971 0.00040169 0.000431892 0.000409275 0.000438338 0.000431892 0.000457971 0.000438338 0.000469788 0.000444624 0.000465707 0.000457971 0.000481297 0.000465707 0.000483161 0.000481297 0.000499976 0.000457971 0.000481297 0.000469788 0.00049411 0.000481297 0.000499976 0.00049411 0.0005131 0.000409275 0.000438338 0.000407927 0.000452499 0.000438338 0.000469788 0.000452499 0.000481416 0.000407927 0.000452499 0.000458446 0.000470878 0.000452499 0.000481416 0.000470878 0.000487482 0.000469788 0.00049411 0.000481416 0.000503565 0.00049411 0.0005131 0.000503565 0.000521788 0.000481416 0.000503565 0.000487482 0.00050737 0.000503565 0.000521788 0.00050737 0.000524892 0.000483161 0.000496575 0.000499976 0.000514148 0.000496575 0.000505914 0.000514148 0.000523947 0.000499976 0.000514148 0.0005131 0.000527493 0.000514148 0.000523947 0.000527493 0.000537463 0.000505914 0.000511222 0.000523947 0.000529445 0.000511222 0.000512594 0.000529445 0.000530689 0.000523947 0.000529445 0.000537463 0.000543022 0.000529445 0.000530689 0.000543022 0.000544124 0.0005131 0.000527493 0.000521788 0.000535951 0.000527493 0.000537463 0.000535951 0.000545887 0.000521788 0.000535951 0.000524892 0.000538869 0.000535951 0.000545887 0.000538869 0.000548756 0.000537463 0.000543022 0.000545887 0.000551429 0.000543022 0.000544124 0.000551429 0.000552415 0.000545887 0.000551429 0.000548756 0.00055428 0.000551429 0.000552415 0.00055428 0.000555221 -0.00045303 -0.000374399 -0.000448308 -0.00037031 -0.000374399 -0.00029837 -0.00037031 -0.000294907 -0.000448308 -0.00037031 -0.000434222 -0.000358122 -0.00037031 -0.000294907 -0.000358122 -0.000284589 -0.00029837 -0.000225492 -0.000294907 -0.00022264 -0.000225492 -0.000156149 -0.00022264 -0.00015389 -0.000294907 -0.00022264 -0.000284589 -0.000214149 -0.00022264 -0.00015389 -0.000214149 -0.000147171 -0.000434222 -0.000358122 -0.000411022 -0.000338075 -0.000358122 -0.000284589 -0.000338075 -0.000267641 -0.000411022 -0.000338075 -0.000379149 -0.00031059 -0.000338075 -0.000267641 -0.00031059 -0.00024446 -0.000284589 -0.000214149 -0.000267641 -0.000200226 -0.000214149 -0.000147171 -0.000200226 -0.000136177 -0.000267641 -0.000200226 -0.00024446 -0.000181229 -0.000200226 -0.000136177 -0.000181229 -0.00012123 -0.000379149 -0.00031059 -0.000339262 -0.000276306 -0.00031059 -0.00024446 -0.000276306 -0.000215619 -0.000339262 -0.000276306 -0.000292411 -0.000235953 -0.000276306 -0.000215619 -0.000235953 -0.00018185 -0.00024446 -0.000181229 -0.000215619 -0.000157686 -0.000181229 -0.00012123 -0.000157686 -0.000102824 -0.000215619 -0.000157686 -0.00018185 -0.000130393 -0.000157686 -0.000102824 -0.000130393 -8.16518e-05 -0.00018185 -0.000130393 -0.000144751 -0.000100415 -0.000130393 -8.16518e-05 -0.000100415 -5.85966e-05 -0.000144751 -0.000100415 -0.00010499 -6.88268e-05 -0.000100415 -5.85966e-05 -6.88268e-05 -3.4715e-05 -0.00010499 -6.88268e-05 -6.45486e-05 -3.71565e-05 -6.88268e-05 -3.4715e-05 -3.71565e-05 -1.12748e-05 -6.45486e-05 -3.71565e-05 -2.55934e-05 -7.06698e-06 -3.71565e-05 -1.12748e-05 -7.06698e-06 1.02335e-05 -0.000156149 -9.0584e-05 -0.00015389 -8.88938e-05 -9.0584e-05 -2.89631e-05 -8.88938e-05 -2.78149e-05 -0.00015389 -8.88938e-05 -0.000147171 -8.38765e-05 -8.88938e-05 -2.78149e-05 -8.38765e-05 -2.44155e-05 -2.89631e-05 2.85534e-05 -2.78149e-05 2.91921e-05 2.85534e-05 8.18372e-05 2.91921e-05 8.20031e-05 -2.78149e-05 2.91921e-05 -2.44155e-05 3.10719e-05 2.91921e-05 8.20031e-05 3.10719e-05 8.2474e-05 -0.000147171 -8.38765e-05 -0.000136177 -7.56943e-05 -8.38765e-05 -2.44155e-05 -7.56943e-05 -1.89035e-05 -0.000136177 -7.56943e-05 -0.00012123 -6.46345e-05 -7.56943e-05 -1.89035e-05 -6.46345e-05 -1.1523e-05 -2.44155e-05 3.10719e-05 -1.89035e-05 3.40807e-05 3.10719e-05 8.2474e-05 3.40807e-05 8.31662e-05 -1.89035e-05 3.40807e-05 -1.1523e-05 3.80221e-05 3.40807e-05 8.31662e-05 3.80221e-05 8.39331e-05 8.18372e-05 0.000130812 8.20031e-05 0.000130544 0.000130812 0.000175433 0.000130544 0.000174773 8.20031e-05 0.000130544 8.2474e-05 0.000129725 0.000130544 0.000174773 0.000129725 0.000172787 0.000175433 0.000215675 0.000174773 0.000214665 0.000215675 0.000251524 0.000214665 0.000250203 0.000174773 0.000214665 0.000172787 0.000211634 0.000214665 0.000250203 0.000211634 0.000246251 8.2474e-05 0.000129725 8.31662e-05 0.000128299 0.000129725 0.000172787 0.000128299 0.000169447 8.31662e-05 0.000128299 8.39331e-05 0.000126171 0.000128299 0.000169447 0.000126171 0.000164708 0.000172787 0.000211634 0.000169447 0.000206586 0.000211634 0.000246251 0.000206586 0.000239694 0.000169447 0.000206586 0.000164708 0.000199518 0.000206586 0.000239694 0.000199518 0.000230574 -0.00012123 -6.46345e-05 -0.000102824 -5.11267e-05 -6.46345e-05 -1.1523e-05 -5.11267e-05 -2.63667e-06 -0.000102824 -5.11267e-05 -8.16518e-05 -3.57614e-05 -5.11267e-05 -2.63667e-06 -3.57614e-05 7.26231e-06 -1.1523e-05 3.80221e-05 -2.63667e-06 4.26042e-05 3.80221e-05 8.39331e-05 4.26042e-05 8.45556e-05 -2.63667e-06 4.26042e-05 7.26231e-06 4.74297e-05 4.26042e-05 8.45556e-05 4.74297e-05 8.47341e-05 -8.16518e-05 -3.57614e-05 -5.85966e-05 -1.92998e-05 -3.57614e-05 7.26231e-06 -1.92998e-05 1.75376e-05 -5.85966e-05 -1.92998e-05 -3.4715e-05 -2.67297e-06 -1.92998e-05 1.75376e-05 -2.67297e-06 2.74077e-05 7.26231e-06 4.74297e-05 1.75376e-05 5.19873e-05 4.74297e-05 8.47341e-05 5.19873e-05 8.4082e-05 1.75376e-05 5.19873e-05 2.74077e-05 5.56502e-05 5.19873e-05 8.4082e-05 5.56502e-05 8.21286e-05 8.39331e-05 0.000126171 8.45556e-05 0.000123193 0.000126171 0.000164708 0.000123193 0.000158493 8.45556e-05 0.000123193 8.47341e-05 0.000119163 0.000123193 0.000158493 0.000119163 0.000150692 0.000164708 0.000199518 0.000158493 0.000190423 0.000199518 0.000230574 0.000190423 0.000218946 0.000158493 0.000190423 0.000150692 0.000179278 0.000190423 0.000218946 0.000179278 0.000204864 8.47341e-05 0.000119163 8.4082e-05 0.000113818 0.000119163 0.000150692 0.000113818 0.000141158 8.4082e-05 0.000113818 8.21286e-05 0.000106831 0.000113818 0.000141158 0.000106831 0.000129704 0.000150692 0.000179278 0.000141158 0.000166041 0.000179278 0.000204864 0.000166041 0.000188387 0.000141158 0.000166041 0.000129704 0.000150653 0.000166041 0.000188387 0.000150653 0.000169564 0.000251524 0.000282967 0.000250203 0.000281376 0.000282967 0.000309982 0.000281376 0.000308159 0.000250203 0.000281376 0.000246251 0.00027662 0.000281376 0.000308159 0.00027662 0.000302715 0.000309982 0.000332529 0.000308159 0.000330513 0.000332529 0.000350564 0.000330513 0.000348393 0.000308159 0.000330513 0.000302715 0.000324496 0.000330513 0.000348393 0.000324496 0.000341916 0.000246251 0.00027662 0.000239694 0.000268749 0.00027662 0.000302715 0.000268749 0.000293721 0.000239694 0.000268749 0.000230574 0.000257846 0.000268749 0.000293721 0.000257846 0.000281292 0.000302715 0.000324496 0.000293721 0.000314565 0.000324496 0.000341916 0.000314565 0.000331234 0.000293721 0.000314565 0.000281292 0.000300864 0.000314565 0.000331234 0.000300864 0.000316516 0.000350564 0.000364042 0.000348393 0.000361755 0.000364042 0.000372926 0.000361755 0.000370563 0.000348393 0.000361755 0.000341916 0.000354933 0.000361755 0.000370563 0.000354933 0.000363513 0.000372926 0.000377197 0.000370563 0.000374797 0.000377197 0.000376865 0.000374797 0.000374468 0.000370563 0.000374797 0.000363513 0.000367638 0.000374797 0.000374468 0.000367638 0.000367317 0.000341916 0.000354933 0.000331234 0.000343688 0.000354933 0.000363513 0.000343688 0.000351895 0.000331234 0.000343688 0.000316516 0.000328206 0.000343688 0.000351895 0.000328206 0.000335905 0.000363513 0.000367638 0.000351895 0.00035584 0.000367638 0.000367317 0.00035584 0.000355534 0.000351895 0.00035584 0.000335905 0.000339604 0.00035584 0.000355534 0.000339604 0.000339317 0.000230574 0.000257846 0.000218946 0.000244016 0.000257846 0.000281292 0.000244016 0.000265584 0.000218946 0.000244016 0.000204864 0.000227391 0.000244016 0.000265584 0.000227391 0.000246788 0.000281292 0.000300864 0.000265584 0.000283593 0.000300864 0.000316516 0.000283593 0.000297991 0.000265584 0.000283593 0.000246788 0.000262991 0.000283593 0.000297991 0.000262991 0.000275945 0.000204864 0.000227391 0.000188387 0.000208109 0.000227391 0.000246788 0.000208109 0.000225118 0.000188387 0.000208109 0.000169564 0.000186315 0.000208109 0.000225118 0.000186315 0.000200795 0.000246788 0.000262991 0.000225118 0.000239335 0.000262991 0.000275945 0.000239335 0.0002507 0.000225118 0.000239335 0.000200795 0.000212913 0.000239335 0.0002507 0.000212913 0.000222602 0.000316516 0.000328206 0.000297991 0.00030874 0.000328206 0.000335905 0.00030874 0.000315815 0.000297991 0.00030874 0.000275945 0.000285609 0.00030874 0.000315815 0.000285609 0.000291962 0.000335905 0.000339604 0.000315815 0.00031921 0.000339604 0.000339317 0.00031921 0.000318944 0.000315815 0.00031921 0.000291962 0.000295003 0.00031921 0.000318944 0.000295003 0.000294758 0.000275945 0.000285609 0.0002507 0.000259172 0.000285609 0.000291962 0.000259172 0.000264733 0.0002507 0.000259172 0.000222602 0.000229819 0.000259172 0.000264733 0.000229819 0.000234545 0.000291962 0.000295003 0.000264733 0.000267385 0.000295003 0.000294758 0.000267385 0.000267156 0.000264733 0.000267385 0.000234545 0.000236784 0.000267385 0.000267156 0.000236784 0.000236565 -3.4715e-05 -2.67297e-06 -1.12748e-05 1.30353e-05 -2.67297e-06 2.74077e-05 1.30353e-05 3.59414e-05 -1.12748e-05 1.30353e-05 1.02335e-05 2.65314e-05 1.30353e-05 3.59414e-05 2.65314e-05 4.22464e-05 2.74077e-05 5.56502e-05 3.59414e-05 5.76975e-05 5.56502e-05 8.21286e-05 5.76975e-05 7.83163e-05 3.59414e-05 5.76975e-05 4.22464e-05 5.72561e-05 5.76975e-05 7.83163e-05 5.72561e-05 7.20063e-05 4.22464e-05 5.72561e-05 4.45529e-05 5.32974e-05 5.72561e-05 7.20063e-05 5.32974e-05 6.25545e-05 4.45529e-05 5.32974e-05 4.21549e-05 4.5089e-05 5.32974e-05 6.25545e-05 4.5089e-05 4.94725e-05 8.21286e-05 0.000106831 7.83163e-05 9.78211e-05 0.000106831 0.000129704 9.78211e-05 0.000116112 7.83163e-05 9.78211e-05 7.20063e-05 8.63757e-05 9.78211e-05 0.000116112 8.63757e-05 0.000100152 0.000129704 0.000150653 0.000116112 0.000133038 0.000150653 0.000169564 0.000133038 0.000148435 0.0001