# vtk DataFile Version 3.0
#This file was generated by the deal.II library on 2022/11/2 at 18:38:02
ASCII
DATASET UNSTRUCTURED_GRID

POINTS 4096 double
0 0.5 0
0.03125 0.5 0
0 0.53125 0
0.03125 0.53125 0
0.03125 0.5 0
0.0625 0.5 0
0.03125 0.53125 0
0.0625 0.53125 0
0 0.53125 0
0.03125 0.53125 0
0 0.5625 0
0.03125 0.5625 0
0.03125 0.53125 0
0.0625 0.53125 0
0.03125 0.5625 0
0.0625 0.5625 0
0.0625 0.5 0
0.09375 0.5 0
0.0625 0.53125 0
0.09375 0.53125 0
0.09375 0.5 0
0.125 0.5 0
0.09375 0.53125 0
0.125 0.53125 0
0.0625 0.53125 0
0.09375 0.53125 0
0.0625 0.5625 0
0.09375 0.5625 0
0.09375 0.53125 0
0.125 0.53125 0
0.09375 0.5625 0
0.125 0.5625 0
0 0.5625 0
0.03125 0.5625 0
0 0.59375 0
0.03125 0.59375 0
0.03125 0.5625 0
0.0625 0.5625 0
0.03125 0.59375 0
0.0625 0.59375 0
0 0.59375 0
0.03125 0.59375 0
0 0.625 0
0.03125 0.625 0
0.03125 0.59375 0
0.0625 0.59375 0
0.03125 0.625 0
0.0625 0.625 0
0.0625 0.5625 0
0.09375 0.5625 0
0.0625 0.59375 0
0.09375 0.59375 0
0.09375 0.5625 0
0.125 0.5625 0
0.09375 0.59375 0
0.125 0.59375 0
0.0625 0.59375 0
0.09375 0.59375 0
0.0625 0.625 0
0.09375 0.625 0
0.09375 0.59375 0
0.125 0.59375 0
0.09375 0.625 0
0.125 0.625 0
0.125 0.5 0
0.15625 0.5 0
0.125 0.53125 0
0.15625 0.53125 0
0.15625 0.5 0
0.1875 0.5 0
0.15625 0.53125 0
0.1875 0.53125 0
0.125 0.53125 0
0.15625 0.53125 0
0.125 0.5625 0
0.15625 0.5625 0
0.15625 0.53125 0
0.1875 0.53125 0
0.15625 0.5625 0
0.1875 0.5625 0
0.1875 0.5 0
0.21875 0.5 0
0.1875 0.53125 0
0.21875 0.53125 0
0.21875 0.5 0
0.25 0.5 0
0.21875 0.53125 0
0.25 0.53125 0
0.1875 0.53125 0
0.21875 0.53125 0
0.1875 0.5625 0
0.21875 0.5625 0
0.21875 0.53125 0
0.25 0.53125 0
0.21875 0.5625 0
0.25 0.5625 0
0.125 0.5625 0
0.15625 0.5625 0
0.125 0.59375 0
0.15625 0.59375 0
0.15625 0.5625 0
0.1875 0.5625 0
0.15625 0.59375 0
0.1875 0.59375 0
0.125 0.59375 0
0.15625 0.59375 0
0.125 0.625 0
0.15625 0.625 0
0.15625 0.59375 0
0.1875 0.59375 0
0.15625 0.625 0
0.1875 0.625 0
0.1875 0.5625 0
0.21875 0.5625 0
0.1875 0.59375 0
0.21875 0.59375 0
0.21875 0.5625 0
0.25 0.5625 0
0.21875 0.59375 0
0.25 0.59375 0
0.1875 0.59375 0
0.21875 0.59375 0
0.1875 0.625 0
0.21875 0.625 0
0.21875 0.59375 0
0.25 0.59375 0
0.21875 0.625 0
0.25 0.625 0
0 0.625 0
0.03125 0.625 0
0 0.65625 0
0.03125 0.65625 0
0.03125 0.625 0
0.0625 0.625 0
0.03125 0.65625 0
0.0625 0.65625 0
0 0.65625 0
0.03125 0.65625 0
0 0.6875 0
0.03125 0.6875 0
0.03125 0.65625 0
0.0625 0.65625 0
0.03125 0.6875 0
0.0625 0.6875 0
0.0625 0.625 0
0.09375 0.625 0
0.0625 0.65625 0
0.09375 0.65625 0
0.09375 0.625 0
0.125 0.625 0
0.09375 0.65625 0
0.125 0.65625 0
0.0625 0.65625 0
0.09375 0.65625 0
0.0625 0.6875 0
0.09375 0.6875 0
0.09375 0.65625 0
0.125 0.65625 0
0.09375 0.6875 0
0.125 0.6875 0
0 0.6875 0
0.03125 0.6875 0
0 0.71875 0
0.03125 0.71875 0
0.03125 0.6875 0
0.0625 0.6875 0
0.03125 0.71875 0
0.0625 0.71875 0
0 0.71875 0
0.03125 0.71875 0
0 0.75 0
0.03125 0.75 0
0.03125 0.71875 0
0.0625 0.71875 0
0.03125 0.75 0
0.0625 0.75 0
0.0625 0.6875 0
0.09375 0.6875 0
0.0625 0.71875 0
0.09375 0.71875 0
0.09375 0.6875 0
0.125 0.6875 0
0.09375 0.71875 0
0.125 0.71875 0
0.0625 0.71875 0
0.09375 0.71875 0
0.0625 0.75 0
0.09375 0.75 0
0.09375 0.71875 0
0.125 0.71875 0
0.09375 0.75 0
0.125 0.75 0
0.125 0.625 0
0.15625 0.625 0
0.125 0.65625 0
0.15625 0.65625 0
0.15625 0.625 0
0.1875 0.625 0
0.15625 0.65625 0
0.1875 0.65625 0
0.125 0.65625 0
0.15625 0.65625 0
0.125 0.6875 0
0.15625 0.6875 0
0.15625 0.65625 0
0.1875 0.65625 0
0.15625 0.6875 0
0.1875 0.6875 0
0.1875 0.625 0
0.21875 0.625 0
0.1875 0.65625 0
0.21875 0.65625 0
0.21875 0.625 0
0.25 0.625 0
0.21875 0.65625 0
0.25 0.65625 0
0.1875 0.65625 0
0.21875 0.65625 0
0.1875 0.6875 0
0.21875 0.6875 0
0.21875 0.65625 0
0.25 0.65625 0
0.21875 0.6875 0
0.25 0.6875 0
0.125 0.6875 0
0.15625 0.6875 0
0.125 0.71875 0
0.15625 0.71875 0
0.15625 0.6875 0
0.1875 0.6875 0
0.15625 0.71875 0
0.1875 0.71875 0
0.125 0.71875 0
0.15625 0.71875 0
0.125 0.75 0
0.15625 0.75 0
0.15625 0.71875 0
0.1875 0.71875 0
0.15625 0.75 0
0.1875 0.75 0
0.1875 0.6875 0
0.21875 0.6875 0
0.1875 0.71875 0
0.21875 0.71875 0
0.21875 0.6875 0
0.25 0.6875 0
0.21875 0.71875 0
0.25 0.71875 0
0.1875 0.71875 0
0.21875 0.71875 0
0.1875 0.75 0
0.21875 0.75 0
0.21875 0.71875 0
0.25 0.71875 0
0.21875 0.75 0
0.25 0.75 0
0.25 0.5 0
0.28125 0.5 0
0.25 0.53125 0
0.28125 0.53125 0
0.28125 0.5 0
0.3125 0.5 0
0.28125 0.53125 0
0.3125 0.53125 0
0.25 0.53125 0
0.28125 0.53125 0
0.25 0.5625 0
0.28125 0.5625 0
0.28125 0.53125 0
0.3125 0.53125 0
0.28125 0.5625 0
0.3125 0.5625 0
0.3125 0.5 0
0.34375 0.5 0
0.3125 0.53125 0
0.34375 0.53125 0
0.34375 0.5 0
0.375 0.5 0
0.34375 0.53125 0
0.375 0.53125 0
0.3125 0.53125 0
0.34375 0.53125 0
0.3125 0.5625 0
0.34375 0.5625 0
0.34375 0.53125 0
0.375 0.53125 0
0.34375 0.5625 0
0.375 0.5625 0
0.25 0.5625 0
0.28125 0.5625 0
0.25 0.59375 0
0.28125 0.59375 0
0.28125 0.5625 0
0.3125 0.5625 0
0.28125 0.59375 0
0.3125 0.59375 0
0.25 0.59375 0
0.28125 0.59375 0
0.25 0.625 0
0.28125 0.625 0
0.28125 0.59375 0
0.3125 0.59375 0
0.28125 0.625 0
0.3125 0.625 0
0.3125 0.5625 0
0.34375 0.5625 0
0.3125 0.59375 0
0.34375 0.59375 0
0.34375 0.5625 0
0.375 0.5625 0
0.34375 0.59375 0
0.375 0.59375 0
0.3125 0.59375 0
0.34375 0.59375 0
0.3125 0.625 0
0.34375 0.625 0
0.34375 0.59375 0
0.375 0.59375 0
0.34375 0.625 0
0.375 0.625 0
0.375 0.5 0
0.40625 0.5 0
0.375 0.53125 0
0.40625 0.53125 0
0.40625 0.5 0
0.4375 0.5 0
0.40625 0.53125 0
0.4375 0.53125 0
0.375 0.53125 0
0.40625 0.53125 0
0.375 0.5625 0
0.40625 0.5625 0
0.40625 0.53125 0
0.4375 0.53125 0
0.40625 0.5625 0
0.4375 0.5625 0
0.4375 0.5 0
0.46875 0.5 0
0.4375 0.53125 0
0.46875 0.53125 0
0.46875 0.5 0
0.5 0.5 0
0.46875 0.53125 0
0.5 0.53125 0
0.4375 0.53125 0
0.46875 0.53125 0
0.4375 0.5625 0
0.46875 0.5625 0
0.46875 0.53125 0
0.5 0.53125 0
0.46875 0.5625 0
0.5 0.5625 0
0.375 0.5625 0
0.40625 0.5625 0
0.375 0.59375 0
0.40625 0.59375 0
0.40625 0.5625 0
0.4375 0.5625 0
0.40625 0.59375 0
0.4375 0.59375 0
0.375 0.59375 0
0.40625 0.59375 0
0.375 0.625 0
0.40625 0.625 0
0.40625 0.59375 0
0.4375 0.59375 0
0.40625 0.625 0
0.4375 0.625 0
0.4375 0.5625 0
0.46875 0.5625 0
0.4375 0.59375 0
0.46875 0.59375 0
0.46875 0.5625 0
0.5 0.5625 0
0.46875 0.59375 0
0.5 0.59375 0
0.4375 0.59375 0
0.46875 0.59375 0
0.4375 0.625 0
0.46875 0.625 0
0.46875 0.59375 0
0.5 0.59375 0
0.46875 0.625 0
0.5 0.625 0
0.25 0.625 0
0.28125 0.625 0
0.25 0.65625 0
0.28125 0.65625 0
0.28125 0.625 0
0.3125 0.625 0
0.28125 0.65625 0
0.3125 0.65625 0
0.25 0.65625 0
0.28125 0.65625 0
0.25 0.6875 0
0.28125 0.6875 0
0.28125 0.65625 0
0.3125 0.65625 0
0.28125 0.6875 0
0.3125 0.6875 0
0.3125 0.625 0
0.34375 0.625 0
0.3125 0.65625 0
0.34375 0.65625 0
0.34375 0.625 0
0.375 0.625 0
0.34375 0.65625 0
0.375 0.65625 0
0.3125 0.65625 0
0.34375 0.65625 0
0.3125 0.6875 0
0.34375 0.6875 0
0.34375 0.65625 0
0.375 0.65625 0
0.34375 0.6875 0
0.375 0.6875 0
0.25 0.6875 0
0.28125 0.6875 0
0.25 0.71875 0
0.28125 0.71875 0
0.28125 0.6875 0
0.3125 0.6875 0
0.28125 0.71875 0
0.3125 0.71875 0
0.25 0.71875 0
0.28125 0.71875 0
0.25 0.75 0
0.28125 0.75 0
0.28125 0.71875 0
0.3125 0.71875 0
0.28125 0.75 0
0.3125 0.75 0
0.3125 0.6875 0
0.34375 0.6875 0
0.3125 0.71875 0
0.34375 0.71875 0
0.34375 0.6875 0
0.375 0.6875 0
0.34375 0.71875 0
0.375 0.71875 0
0.3125 0.71875 0
0.34375 0.71875 0
0.3125 0.75 0
0.34375 0.75 0
0.34375 0.71875 0
0.375 0.71875 0
0.34375 0.75 0
0.375 0.75 0
0.375 0.625 0
0.40625 0.625 0
0.375 0.65625 0
0.40625 0.65625 0
0.40625 0.625 0
0.4375 0.625 0
0.40625 0.65625 0
0.4375 0.65625 0
0.375 0.65625 0
0.40625 0.65625 0
0.375 0.6875 0
0.40625 0.6875 0
0.40625 0.65625 0
0.4375 0.65625 0
0.40625 0.6875 0
0.4375 0.6875 0
0.4375 0.625 0
0.46875 0.625 0
0.4375 0.65625 0
0.46875 0.65625 0
0.46875 0.625 0
0.5 0.625 0
0.46875 0.65625 0
0.5 0.65625 0
0.4375 0.65625 0
0.46875 0.65625 0
0.4375 0.6875 0
0.46875 0.6875 0
0.46875 0.65625 0
0.5 0.65625 0
0.46875 0.6875 0
0.5 0.6875 0
0.375 0.6875 0
0.40625 0.6875 0
0.375 0.71875 0
0.40625 0.71875 0
0.40625 0.6875 0
0.4375 0.6875 0
0.40625 0.71875 0
0.4375 0.71875 0
0.375 0.71875 0
0.40625 0.71875 0
0.375 0.75 0
0.40625 0.75 0
0.40625 0.71875 0
0.4375 0.71875 0
0.40625 0.75 0
0.4375 0.75 0
0.4375 0.6875 0
0.46875 0.6875 0
0.4375 0.71875 0
0.46875 0.71875 0
0.46875 0.6875 0
0.5 0.6875 0
0.46875 0.71875 0
0.5 0.71875 0
0.4375 0.71875 0
0.46875 0.71875 0
0.4375 0.75 0
0.46875 0.75 0
0.46875 0.71875 0
0.5 0.71875 0
0.46875 0.75 0
0.5 0.75 0
0 0.75 0
0.03125 0.75 0
0 0.78125 0
0.03125 0.78125 0
0.03125 0.75 0
0.0625 0.75 0
0.03125 0.78125 0
0.0625 0.78125 0
0 0.78125 0
0.03125 0.78125 0
0 0.8125 0
0.03125 0.8125 0
0.03125 0.78125 0
0.0625 0.78125 0
0.03125 0.8125 0
0.0625 0.8125 0
0.0625 0.75 0
0.09375 0.75 0
0.0625 0.78125 0
0.09375 0.78125 0
0.09375 0.75 0
0.125 0.75 0
0.09375 0.78125 0
0.125 0.78125 0
0.0625 0.78125 0
0.09375 0.78125 0
0.0625 0.8125 0
0.09375 0.8125 0
0.09375 0.78125 0
0.125 0.78125 0
0.09375 0.8125 0
0.125 0.8125 0
0 0.8125 0
0.03125 0.8125 0
0 0.84375 0
0.03125 0.84375 0
0.03125 0.8125 0
0.0625 0.8125 0
0.03125 0.84375 0
0.0625 0.84375 0
0 0.84375 0
0.03125 0.84375 0
0 0.875 0
0.03125 0.875 0
0.03125 0.84375 0
0.0625 0.84375 0
0.03125 0.875 0
0.0625 0.875 0
0.0625 0.8125 0
0.09375 0.8125 0
0.0625 0.84375 0
0.09375 0.84375 0
0.09375 0.8125 0
0.125 0.8125 0
0.09375 0.84375 0
0.125 0.84375 0
0.0625 0.84375 0
0.09375 0.84375 0
0.0625 0.875 0
0.09375 0.875 0
0.09375 0.84375 0
0.125 0.84375 0
0.09375 0.875 0
0.125 0.875 0
0.125 0.75 0
0.15625 0.75 0
0.125 0.78125 0
0.15625 0.78125 0
0.15625 0.75 0
0.1875 0.75 0
0.15625 0.78125 0
0.1875 0.78125 0
0.125 0.78125 0
0.15625 0.78125 0
0.125 0.8125 0
0.15625 0.8125 0
0.15625 0.78125 0
0.1875 0.78125 0
0.15625 0.8125 0
0.1875 0.8125 0
0.1875 0.75 0
0.21875 0.75 0
0.1875 0.78125 0
0.21875 0.78125 0
0.21875 0.75 0
0.25 0.75 0
0.21875 0.78125 0
0.25 0.78125 0
0.1875 0.78125 0
0.21875 0.78125 0
0.1875 0.8125 0
0.21875 0.8125 0
0.21875 0.78125 0
0.25 0.78125 0
0.21875 0.8125 0
0.25 0.8125 0
0.125 0.8125 0
0.15625 0.8125 0
0.125 0.84375 0
0.15625 0.84375 0
0.15625 0.8125 0
[...]
POINT_DATA 4096
SCALARS x_dis double 1
LOOKUP_TABLE default
-7.06056e-15 -7.06056e-15 2.63504e-14 2.63504e-14 -7.06056e-15 -7.06056e-15 2.63504e-14 2.63504e-14 2.63504e-14 2.63504e-14 -9.83409e-14 -9.83409e-14 2.63504e-14 2.63504e-14 -9.83409e-14 -9.83409e-14 -7.06056e-15 -7.06056e-15 2.63504e-14 2.63504e-14 -7.06056e-15 -7.06056e-15 2.63504e-14 2.63504e-14 2.63504e-14 2.63504e-14 -9.83409e-14 -9.83409e-14 2.63504e-14 2.63504e-14 -9.83409e-14 -9.83409e-14 -9.83409e-14 -9.83409e-14 3.67013e-13 3.67013e-13 -9.83409e-14 -9.83409e-14 3.67013e-13 3.67013e-13 3.67013e-13 3.67013e-13 -1.36971e-12 -1.36971e-12 3.67013e-13 3.67013e-13 -1.36971e-12 -1.36971e-12 -9.83409e-14 -9.83409e-14 3.67013e-13 3.67013e-13 -9.83409e-14 -9.83409e-14 3.67013e-13 3.67013e-13 3.67013e-13 3.67013e-13 -1.36971e-12 -1.36971e-12 3.67013e-13 3.67013e-13 -1.36971e-12 -1.36971e-12 -7.06056e-15 -7.06056e-15 2.63504e-14 2.63504e-14 -7.06056e-15 -7.06056e-15 2.63504e-14 2.63504e-14 2.63504e-14 2.63504e-14 -9.83409e-14 -9.83409e-14 2.63504e-14 2.63504e-14 -9.83409e-14 -9.83409e-14 -7.06056e-15 -7.06056e-15 2.63504e-14 2.63504e-14 -7.06056e-15 -7.06056e-15 2.63504e-14 2.63504e-14 2.63504e-14 2.63504e-14 -9.83409e-14 -9.83409e-14 2.63504e-14 2.63504e-14 -9.83409e-14 -9.83409e-14 -9.83409e-14 -9.83409e-14 3.67013e-13 3.67013e-13 -9.83409e-14 -9.83409e-14 3.67013e-13 3.67013e-13 3.67013e-13 3.67013e-13 -1.36971e-12 -1.36971e-12 3.67013e-13 3.67013e-13 -1.36971e-12 -1.36971e-12 -9.83409e-14 -9.83409e-14 3.67013e-13 3.67013e-13 -9.83409e-14 -9.83409e-14 3.67013e-13 3.67013e-13 3.67013e-13 3.67013e-13 -1.36971e-12 -1.36971e-12 3.67013e-13 3.67013e-13 -1.36971e-12 -1.36971e-12 -1.36971e-12 -1.36971e-12 5.11184e-12 5.11184e-12 -1.36971e-12 -1.36971e-12 5.11184e-12 5.11184e-12 5.11184e-12 5.11184e-12 -1.90776e-11 -1.90776e-11 5.11184e-12 5.11184e-12 -1.90776e-11 -1.90776e-11 -1.36971e-12 -1.36971e-12 5.11184e-12 5.11184e-12 -1.36971e-12 -1.36971e-12 5.11184e-12 5.11184e-12 5.11184e-12 5.11184e-12 -1.90776e-11 -1.90776e-11 5.11184e-12 5.11184e-12 -1.90776e-11 -1.90776e-11 -1.90776e-11 -1.90776e-11 7.11987e-11 7.11987e-11 -1.90776e-11 -1.90776e-11 7.11987e-11 7.11987e-11 7.11987e-11 7.11987e-11 -2.65717e-10 -2.65717e-10 7.11987e-11 7.11987e-11 -2.65717e-10 -2.65717e-10 -1.90776e-11 -1.90776e-11 7.11987e-11 7.11987e-11 -1.90776e-11 -1.90776e-11 7.11987e-11 7.11987e-11 7.11987e-11 7.11987e-11 -2.65717e-10 -2.65717e-10 7.11987e-11 7.11987e-11 -2.65717e-10 -2.65717e-10 -1.36971e-12 -1.36971e-12 5.11184e-12 5.11184e-12 -1.36971e-12 -1.36971e-12 5.11184e-12 5.11184e-12 5.11184e-12 5.11184e-12 -1.90776e-11 -1.90776e-11 5.11184e-12 5.11184e-12 -1.90776e-11 -1.90776e-11 -1.36971e-12 -1.36971e-12 5.11184e-12 5.11184e-12 -1.36971e-12 -1.36971e-12 5.11184e-12 5.11184e-12 5.11184e-12 5.11184e-12 -1.90776e-11 -1.90776e-11 5.11184e-12 5.11184e-12 -1.90776e-11 -1.90776e-11 -1.90776e-11 -1.90776e-11 7.11987e-11 7.11987e-11 -1.90776e-11 -1.90776e-11 7.11987e-11 7.11987e-11 7.11987e-11 7.11987e-11 -2.65717e-10 -2.65717e-10 7.11987e-11 7.11987e-11 -2.65717e-10 -2.65717e-10 -1.90776e-11 -1.90776e-11 7.11987e-11 7.11987e-11 -1.90776e-11 -1.90776e-11 7.11987e-11 7.11987e-11 7.11987e-11 7.11987e-11 -2.65717e-10 -2.65717e-10 7.11987e-11 7.11987e-11 -2.65717e-10 -2.65717e-10 -7.06056e-15 -7.06056e-15 2.63504e-14 2.63504e-14 -7.06056e-15 -7.06056e-15 2.63504e-14 2.63504e-14 2.63504e-14 2.63504e-14 -9.83409e-14 -9.83409e-14 2.63504e-14 2.63504e-14 -9.83409e-14 -9.83409e-14 -7.06056e-15 -7.06056e-15 2.63504e-14 2.63504e-14 -7.06056e-15 -7.06056e-15 2.63504e-14 2.63504e-14 2.63504e-14 2.63504e-14 -9.83409e-14 -9.83409e-14 2.63504e-14 2.63504e-14 -9.83409e-14 -9.83409e-14 -9.83409e-14 -9.83409e-14 3.67013e-13 3.67013e-13 -9.83409e-14 -9.83409e-14 3.67013e-13 3.67013e-13 3.67013e-13 3.67013e-13 -1.36971e-12 -1.36971e-12 3.67013e-13 3.67013e-13 -1.36971e-12 -1.36971e-12 -9.83409e-14 -9.83409e-14 3.67013e-13 3.67013e-13 -9.83409e-14 -9.83409e-14 3.67013e-13 3.67013e-13 3.67013e-13 3.67013e-13 -1.36971e-12 -1.36971e-12 3.67013e-13 3.67013e-13 -1.36971e-12 -1.36971e-12 -7.06056e-15 -7.06056e-15 2.63504e-14 2.63504e-14 -7.06056e-15 -7.06056e-15 2.63504e-14 2.63504e-14 2.63504e-14 2.63504e-14 -9.83409e-14 -9.83409e-14 2.63504e-14 2.63504e-14 -9.83409e-14 -9.83409e-14 -7.06056e-15 -7.06056e-15 2.63504e-14 2.63504e-14 -7.06056e-15 -7.06056e-15 2.63504e-14 2.63504e-14 2.63504e-14 2.63504e-14 -9.83409e-14 -9.83409e-14 2.63504e-14 2.63504e-14 -9.83409e-14 -9.83409e-14 -9.83409e-14 -9.83409e-14 3.67013e-13 3.67013e-13 -9.83409e-14 -9.83409e-14 3.67013e-13 3.67013e-13 3.67013e-13 3.67013e-13 -1.36971e-12 -1.36971e-12 3.67013e-13 3.67013e-13 -1.36971e-12 -1.36971e-12 -9.83409e-14 -9.83409e-14 3.67013e-13 3.67013e-13 -9.83409e-14 -9.83409e-14 3.67013e-13 3.67013e-13 3.67013e-13 3.67013e-13 -1.36971e-12 -1.36971e-12 3.67013e-13 3.67013e-13 -1.36971e-12 -1.36971e-12 -1.36971e-12 -1.36971e-12 5.11184e-12 5.11184e-12 -1.36971e-12 -1.36971e-12 5.11184e-12 5.11184e-12 5.11184e-12 5.11184e-12 -1.90776e-11 -1.90776e-11 5.11184e-12 5.11184e-12 -1.90776e-11 -1.90776e-11 -1.36971e-12 -1.36971e-12 5.11184e-12 5.11184e-12 -1.36971e-12 -1.36971e-12 5.11184e-12 5.11184e-12 5.11184e-12 5.11184e-12 -1.90776e-11 -1.90776e-11 5.11184e-12 5.11184e-12 -1.90776e-11 -1.90776e-11 -1.90776e-11 -1.90776e-11 7.11987e-11 7.11987e-11 -1.90776e-11 -1.90776e-11 7.11987e-11 7.11987e-11 7.11987e-11 7.11987e-11 -2.65717e-10 -2.65717e-10 7.11987e-11 7.11987e-11 -2.65717e-10 -2.65717e-10 -1.90776e-11 -1.90776e-11 7.11987e-11 7.11987e-11 -1.90776e-11 -1.90776e-11 7.11987e-11 7.11987e-11 7.11987e-11 7.11987e-11 -2.65717e-10 -2.65717e-10 7.11987e-11 7.11987e-11 -2.65717e-10 -2.65717e-10 -1.36971e-12 -1.36971e-12 5.11184e-12 5.11184e-12 -1.36971e-12 -1.36971e-12 5.11184e-12 5.11184e-12 5.11184e-12 5.11184e-12 -1.90776e-11 -1.90776e-11 5.11184e-12 5.11184e-12 -1.90776e-11 -1.90776e-11 -1.36971e-12 -1.36971e-12 5.11184e-12 5.11184e-12 -1.36971e-12 -1.36971e-12 5.11184e-12 5.11184e-12 5.11184e-12 5.11184e-12 -1.90776e-11 -1.90776e-11 5.11184e-12 5.11184e-12 -1.90776e-11 -1.90776e-11 -1.90776e-11 -1.90776e-11 7.11987e-11 7.11987e-11 -1.90776e-11 -1.90776e-11 7.11987e-11 7.11987e-11 7.11987e-11 7.11987e-11 -2.65717e-10 -2.65717e-10 7.11987e-11 7.11987e-11 -2.65717e-10 -2.65717e-10 -1.90776e-11 -1.90776e-11 7.11987e-11 7.11987e-11 -1.90776e-11 -1.90776e-11 7.11987e-11 7.11987e-11 7.11987e-11 7.11987e-11 -2.65717e-10 -2.65717e-10 7.11987e-11 7.11987e-11 -2.65717e-10 -2.65717e-10 -2.65717e-10 -2.65717e-10 9.9167e-10 9.9167e-10 -2.65717e-10 -2.65717e-10 9.9167e-10 9.9167e-10 9.9167e-10 9.9167e-10 -3.70096e-09 -3.70096e-09 9.9167e-10 9.9167e-10 -3.70096e-09 -3.70096e-09 -2.65717e-10 -2.65717e-10 9.9167e-10 9.9167e-10 -2.65717e-10 -2.65717e-10 9.9167e-10 9.9167e-10 9.9167e-10 9.9167e-10 -3.70096e-09 -3.70096e-09 9.9167e-10 9.9167e-10 -3.70096e-09 -3.70096e-09 -3.70096e-09 -3.70096e-09 1.38122e-08 1.38122e-08 -3.70096e-09 -3.70096e-09 1.38122e-08 1.38122e-08 1.38122e-08 1.38122e-08 -5.15478e-08 -5.15478e-08 1.38122e-08 1.38122e-08 -5.15478e-08 -5.15478e-08 -3.70096e-09 -3.70096e-09 1.38122e-08 1.38122e-08 -3.70096e-09 -3.70096e-09 1.38122e-08 1.38122e-08 1.38122e-08 1.38122e-08 -5.15478e-08 -5.15478e-08 1.38122e-08 1.38122e-08 -5.15478e-08 -5.15478e-08 -2.65717e-10 -2.65717e-10 9.9167e-10 9.9167e-10 -2.65717e-10 -2.65717e-10 9.9167e-10 9.9167e-10 9.9167e-10 9.9167e-10 -3.70096e-09 -3.70096e-09 9.9167e-10 9.9167e-10 -3.70096e-09 -3.70096e-09 -2.65717e-10 -2.65717e-10 9.9167e-10 9.9167e-10 -2.65717e-10 -2.65717e-10 9.9167e-10 9.9167e-10 9.9167e-10 9.9167e-10 -3.70096e-09 -3.70096e-09 9.9167e-10 9.9167e-10 -3.70096e-09 -3.70096e-09 -3.70096e-09 -3.70096e-09 1.38122e-08 1.38122e-08 -3.70096e-09 -3.70096e-09 1.38122e-08 1.38122e-08 1.38122e-08 1.38122e-08 -5.15478e-08 -5.15478e-08 1.38122e-08 1.38122e-08 -5.15478e-08 -5.15478e-08 -3.70096e-09 -3.70096e-09 1.38122e-08 1.38122e-08 -3.70096e-09 -3.70096e-09 1.38122e-08 1.38122e-08 1.38122e-08 1.38122e-08 -5.15478e-08 -5.15478e-08 1.38122e-08 1.38122e-08 -5.15478e-08 -5.15478e-08 -5.15478e-08 -5.15478e-08 1.92379e-07 1.92379e-07 -5.15478e-08 -5.15478e-08 1.92379e-07 1.92379e-07 1.92379e-07 1.92379e-07 -7.17968e-07 -7.17968e-07 1.92379e-07 1.92379e-07 -7.17968e-07 -7.17968e-07 -5.15478e-08 -5.15478e-08 1.92379e-07 1.92379e-07 -5.15478e-08 -5.15478e-08 1.92379e-07 1.92379e-07 1.92379e-07 1.92379e-07 -7.17968e-07 -7.17968e-07 1.92379e-07 1.92379e-07 -7.17968e-07 -7.17968e-07 -7.17968e-07 -7.17968e-07 2.67949e-06 2.67949e-06 -7.17968e-07 -7.17968e-07 2.67949e-06 2.67949e-06 2.67949e-06 2.67949e-06 -1e-05 -1e-05 2.67949e-06 2.67949e-06 -1e-05 -1e-05 -7.17968e-07 -7.17968e-07 2.67949e-06 2.67949e-06 -7.17968e-07 -7.17968e-07 2.67949e-06 2.67949e-06 2.67949e-06 2.67949e-06 -1e-05 -1e-05 2.67949e-06 2.67949e-06 -1e-05 -1e-05 -5.15478e-08 -5.15478e-08 1.92379e-07 1.92379e-07 -5.15478e-08 -5.15478e-08 1.92379e-07 1.92379e-07 1.92379e-07 1.92379e-07 -7.17968e-07 -7.17968e-07 1.92379e-07 1.92379e-07 -7.17968e-07 -7.17968e-07 -5.15478e-08 -5.15478e-08 1.92379e-07 1.92379e-07 -5.15478e-08 -5.15478e-08 1.92379e-07 1.92379e-07 1.92379e-07 1.92379e-07 -7.17968e-07 -7.17968e-07 1.92379e-07 1.92379e-07 -7.17968e-07 -7.17968e-07 -7.17968e-07 -7.17968e-07 2.67949e-06 2.67949e-06 -7.17968e-07 -7.17968e-07 2.67949e-06 2.67949e-06 2.67949e-06 2.67949e-06 -1e-05 -1e-05 2.67949e-06 2.67949e-06 -1e-05 -1e-05 -7.17968e-07 -7.17968e-07 2.67949e-06 2.67949e-06 -7.17968e-07 -7.17968e-07 2.67949e-06 2.67949e-06 2.67949e-06 2.67949e-06 -1e-05 -1e-05 2.67949e-06 2.67949e-06 -1e-05 -1e-05 -2.65717e-10 -2.65717e-10 9.9167e-10 9.9167e-10 -2.65717e-10 -2.65717e-10 9.9167e-10 9.9167e-10 9.9167e-10 9.9167e-10 -3.70096e-09 -3.70096e-09 9.9167e-10 9.9167e-10 -3.70096e-09 -3.70096e-09 -2.65717e-10 -2.65717e-10 9.9167e-10 9.9167e-10 -2.65717e-10 -2.65717e-10 9.9167e-10 9.9167e-10 9.9167e-10 9.9167e-10 -3.70096e-09 -3.70096e-09 9.9167e-10 9.9167e-10 -3.70096e-09 -3.70096e-09 -3.70096e-09 -3.70096e-09 1.38122e-08 1.38122e-08 -3.70096e-09 -3.70096e-09 1.38122e-08 1.38122e-08 1.38122e-08 1.38122e-08 -5.15478e-08 -5.15478e-08 1.38122e-08 1.38122e-08 -5.15478e-08 -5.15478e-08 -3.70096e-09 -3.70096e-09 1.38122e-08 1.38122e-08 -3.70096e-09 -3.70096e-09 1.38122e-08 1.38122e-08 1.38122e-08 1.38122e-08 -5.15478e-08 -5.15478e-08 1.38122e-08 1.38122e-08 -5.15478e-08 -5.15478e-08 -2.65717e-10 -2.65717e-10 9.9167e-10 9.9167e-10 -2.65717e-10 -2.65717e-10 9.9167e-10 9.9167e-10 9.9167e-10 9.9167e-10 -3.70096e-09 -3.70096e-09 9.9167e-10 9.9167e-10 -3.70096e-09 -3.70096e-09 -2.65717e-10 -2.65717e-10 9.9167e-10 9.9167e-10 -2.65717e-10 -2.65717e-10 9.9167e-10 9.9167e-10 9.9167e-10 9.9167e-10 -3.70096e-09 -3.70096e-09 9.9167e-10 9.9167e-10 -3.70096e-09 -3.70096e-09 -3.70096e-09 -3.70096e-09 1.38122e-08 1.38122e-08 -3.70096e-09 -3.70096e-09 1.38122e-08 1.38122e-08 1.38122e-08 1.38122e-08 -5.15478e-08 -5.15478e-08 1.38122e-08 1.38122e-08 -5.15478e-08 -5.15478e-08 -3.70096e-09 -3.70096e-09 1.38122e-08 1.38122e-08 -3.70096e-09 -3.70096e-09 1.38122e-08 1.38122e-08 1.38122e-08 1.38122e-08 -5.15478e-08 -5.15478e-08 1.38122e-08 1.38122e-08 -5.15478e-08 -5.15478e-08 -5.15478e-08 -5.15478e-08 1.92379e-07 1.92379e-07 -5.15478e-08 -5.15478e-08 1.92379e-07 1.92379e-07 1.92379e-07 1.92379e-07 -7.17968e-07 -7.17968e-07 1.92379e-07 1.92379e-07 -7.17968e-07 -7.17968e-07 -5.15478e-08 -5.15478e-08 1.92379e-07 1.92379e-07 -5.15478e-08 -5.15478e-08 1.92379e-07 1.92379e-07 1.92379e-07 1.92379e-07 -7.17968e-07 -7.17968e-07 1.92379e-07 1.92379e-07 -7.17968e-07 -7.17968e-07 -7.17968e-07 -7.17968e-07 2.67949e-06 2.67949e-06 -7.17968e-07 -7.17968e-07 2.67949e-06 2.67949e-06 2.67949e-06 2.67949e-06 -1e-05 -1e-05 2.67949e-06 2.67949e-06 -1e-05 -1e-05 -7.17968e-07 -7.17968e-07 2.67949e-06 2.67949e-06 -7.17968e-07 -7.17968e-07 2.67949e-06 2.67949e-06 2.67949e-06 2.67949e-06 -1e-05 -1e-05 2.67949e-06 2.67949e-06 -1e-05 -1e-05 -5.15478e-08 -5.15478e-08 1.92379e-07 1.92379e-07 -5.15478e-08 -5.15478e-08 1.92379e-07 1.92379e-07 1.92379e-07 1.92379e-07 -7.17968e-07 -7.17968e-07 1.92379e-07 1.92379e-07 -7.17968e-07 -7.17968e-07 -5.15478e-08 -5.15478e-08 1.92379e-07 1.92379e-07 -5.15478e-08 -5.15478e-08 1.92379e-07 1.92379e-07 1.92379e-07 1.92379e-07 -7.17968e-07 -7.17968e-07 1.92379e-07 1.92379e-07 -7.17968e-07 -7.17968e-07 -7.17968e-07 -7.17968e-07 2.67949e-06 2.67949e-06 -7.17968e-07 -7.17968e-07 2.67949e-06 2.67949e-06 2.67949e-06 2.67949e-06 -1e-05 -1e-05 2.67949e-06 2.67949e-06 -1e-05 -1e-05 -7.17968e-07 -7.17968e-07 2.67949e-06 2.67949e-06 -7.17968e-07 -7.17968e-07 2.67949e-06 2.67949e-06 2.67949e-06 2.67949e-06 -1e-05 -1e-05 2.67949e-06 2.67949e-06 -1e-05 -1e-05 -7.06056e-15 -1.6013e-14 2.63504e-14 2.87492e-14 -1.6013e-14 -1.36142e-14 2.87492e-14 2.81064e-14 2.63504e-14 2.87492e-14 -9.83409e-14 -9.89837e-14 2.87492e-14 2.81064e-14 -9.89837e-14 -9.88115e-14 -1.36142e-14 -1.4257e-14 2.81064e-14 2.82786e-14 -1.4257e-14 -1.40847e-14 2.82786e-14 2.82325e-14 2.81064e-14 2.82786e-14 -9.88115e-14 -9.88576e-14 2.82786e-14 2.82325e-14 -9.88576e-14 -9.88452e-14 -9.83409e-14 -9.89837e-14 3.67013e-13 3.67186e-13 -9.89837e-14 -9.88115e-14 3.67186e-13 3.67139e-13 3.67013e-13 3.67186e-13 -1.36971e-12 -1.36976e-12 3.67186e-13 3.67139e-13 -1.36976e-12 -1.36975e-12 -9.88115e-14 -9.88576e-14 3.67139e-13 3.67152e-13 -9.88576e-14 -9.88452e-14 3.67152e-13 3.67149e-13 3.67139e-13 3.67152e-13 -1.36975e-12 -1.36975e-12 3.67152e-13 3.67149e-13 -1.36975e-12 -1.36975e-12 -1.40847e-14 -1.41309e-14 2.82325e-14 2.82449e-14 -1.41309e-14 -1.41185e-14 2.82449e-14 2.82415e-14 2.82325e-14 2.82449e-14 -9.88452e-14 -9.88486e-14 2.82449e-14 2.82415e-14 -9.88486e-14 -9.88477e-14 -1.41185e-14 -1.41218e-14 2.82415e-14 2.82424e-14 -1.41218e-14 -1.41209e-14 2.82424e-14 2.82422e-14 2.82415e-14 2.82424e-14 -9.88477e-14 -9.88479e-14 2.82424e-14 2.82422e-14 -9.88479e-14 -9.88479e-14 -9.88452e-14 -9.88486e-14 3.67149e-13 3.67149e-13 -9.88486e-14 -9.88477e-14 3.67149e-13 3.67149e-13 3.67149e-13 3.67149e-13 -1.36975e-12 -1.36975e-12 3.67149e-13 3.67149e-13 -1.36975e-12 -1.36975e-12 -9.88477e-14 -9.88479e-14 3.67149e-13 3.67149e-13 -9.88479e-14 -9.88479e-14 3.67149e-13 3.67149e-13 3.67149e-13 3.67149e-13 -1.36975e-12 -1.36975e-12 3.67149e-13 3.67149e-13 -1.36975e-12 -1.36975e-12 -1.36971e-12 -1.36976e-12 5.11184e-12 5.11185e-12 -1.36976e-12 -1.36975e-12 5.11185e-12 5.11185e-12 5.11184e-12 5.11185e-12 -1.90776e-11 -1.90776e-11 5.11185e-12 5.11185e-12 -1.90776e-11 -1.90776e-11 -1.36975e-12 -1.36975e-12 5.11185e-12 5.11185e-12 -1.36975e-12 -1.36975e-12 5.11185e-12 5.11185e-12 5.11185e-12 5.11185e-12 -1.90776e-11 -1.90776e-11 5.11185e-12 5.11185e-12 -1.90776e-11 -1.90776e-11 -1.90776e-11 -1.90776e-11 7.11987e-11 7.11987e-11 -1.90776e-11 -1.90776e-11 7.11987e-11 7.11987e-11 7.11987e-11 7.11987e-11 -2.65717e-10 -2.65717e-10 7.11987e-11 7.11987e-11 -2.65717e-10 -2.65717e-10 -1.90776e-11 -1.90776e-11 7.11987e-11 7.11987e-11 -1.90776e-11 -1.90776e-11 7.11987e-11 7.11987e-11 7.11987e-11 7.11987e-11 -2.65717e-10 -2.65717e-10 7.11987e-11 7.11987e-11 -2.65717e-10 -2.65717e-10 -1.36975e-12 -1.36975e-12 5.11185e-12 5.11185e-12 -1.36975e-12 -1.36975e-12 5.11185e-12 5.11185e-12 5.11185e-12 5.11185e-12 -1.90776e-11 -1.90776e-11 5.11185e-12 5.11185e-12 -1.90776e-11 -1.90776e-11 -1.36975e-12 -1.36975e-12 5.11185e-12 5.11185e-12 -1.36975e-12 -1.36975e-12 5.11185e-12 5.11185e-12 5.11185e-12 5.11185e-12 -1.90776e-11 -1.90776e-11 5.11185e-12 5.11185e-12 -1.90776e-11 -1.90776e-11 -1.90776e-11 -1.90776e-11 7.11987e-11 7.11987e-11 -1.90776e-11 -1.90776e-11 7.11987e-11 7.11987e-11 7.11987e-11 7.11987e-11 -2.65717e-10 -2.65717e-10 7.11987e-11 7.11987e-11 -2.65717e-10 -2.65717e-10 -1.90776e-11 -1.90776e-11 7.11987e-11 7.11987e-11 -1.90776e-11 -1.90776e-11 7.11987e-11 7.11987e-11 7.11987e-11 7.11987e-11 -2.65717e-10 -2.65717e-10 7.11987e-11 7.11987e-11 -2.65717e-10 -2.65717e-10 -1.41209e-14 -1.41212e-14 2.82422e-14 2.82423e-14 -1.41212e-14 -1.41211e-14 2.82423e-14 2.82422e-14 2.82422e-14 2.82423e-14 -9.88479e-14 -9.88479e-14 2.82423e-14 2.82422e-14 -9.88479e-14 -9.88479e-14 -1.41211e-14 -1.41211e-14 2.82422e-14 2.82422e-14 -1.41211e-14 -1.41211e-14 2.82422e-14 2.82422e-14 2.82422e-14 2.82422e-14 -9.88479e-14 -9.88479e-14 2.82422e-14 2.82422e-14 -9.88479e-14 -9.88479e-14 -9.88479e-14 -9.88479e-14 3.67149e-13 3.67149e-13 -9.88479e-14 -9.88479e-14 3.67149e-13 3.67149e-13 3.67149e-13 3.67149e-13 -1.36975e-12 -1.36975e-12 3.67149e-13 3.67149e-13 -1.36975e-12 -1.36975e-12 -9.88479e-14 -9.88479e-14 3.67149e-13 3.67149e-13 -9.88479e-14 -9.88479e-14 3.67149e-13 3.67149e-13 3.67149e-13 3.67149e-13 -1.36975e-12 -1.36975e-12 3.67149e-13 3.67149e-13 -1.36975e-12 -1.36975e-12 -1.41211e-14 -1.41211e-14 2.82422e-14 2.82422e-14 -1.41211e-14 -1.41211e-14 2.82422e-14 2.82422e-14 2.82422e-14 2.82422e-14 -9.88479e-14 -9.88479e-14 2.82422e-14 2.82422e-14 -9.88479e-14 -9.88479e-14 -1.41211e-14 -1.41211e-14 2.82422e-14 2.82422e-14 -1.41211e-14 -1.41211e-14 2.82422e-14 2.82422e-14 2.82422e-14 2.82422e-14 -9.88479e-14 -9.88479e-14 2.82422e-14 2.82422e-14 -9.88479e-14 -9.88479e-14 -9.88479e-14 -9.88479e-14 3.67149e-13 3.67149e-13 -9.88479e-14 -9.88479e-14 3.67149e-13 3.67149e-13 3.67149e-13 3.67149e-13 -1.36975e-12 -1.36975e-12 3.67149e-13 3.67149e-13 -1.36975e-12 -1.36975e-12 -9.88479e-14 -9.88479e-14 3.67149e-13 3.67149e-13 -9.88479e-14 -9.88479e-14 3.67149e-13 3.67149e-13 3.67149e-13 3.67149e-13 -1.36975e-12 -1.36975e-12 3.67149e-13 3.67149e-13 -1.36975e-12 -1.36975e-12 -1.36975e-12 -1.36975e-12 5.11185e-12 5.11185e-12 -1.36975e-12 -1.36975e-12 5.11185e-12 5.11185e-12 5.11185e-12 5.11185e-12 -1.90776e-11 -1.90776e-11 5.11185e-12 5.11185e-12 -1.90776e-11 -1.90776e-11 -1.36975e-12 -1.36975e-12 5.11185e-12 5.11185e-12 -1.36975e-12 -1.36975e-12 5.11185e-12 5.11185e-12 5.11185e-12 5.11185e-12 -1.90776e-11 -1.90776e-11 5.11185e-12 5.11185e-12 -1.90776e-11 -1.90776e-11 -1.90776e-11 -1.90776e-11 7.11987e-11 7.11987e-11 -1.90776e-11 -1.90776e-11 7.11987e-11 7.11987e-11 7.11987e-11 7.11987e-11 -2.65717e-10 -2.65717e-10 7.11987e-11 7.11987e-11 -2.65717e-10 -2.65717e-10 -1.90776e-11 -1.90776e-11 7.11987e-11 7.11987e-11 -1.90776e-11 -1.90776e-11 7.11987e-11 7.11987e-11 7.11987e-11 7.11987e-11 -2.65717e-10 -2.65717e-10 7.11987e-11 7.11987e-11 -2.65717e-10 -2.65717e-10 -1.36975e-12 -1.36975e-12 5.11185e-12 5.11185e-12 -1.36975e-12 -1.36975e-12 5.11185e-12 5.11185e-12 5.11185e-12 5.11185e-12 -1.90776e-11 -1.90776e-11 5.11185e-12 5.11185e-12 -1.90776e-11 -1.90776e-11 -1.36975e-12 -1.36975e-12 5.11185e-12 5.11185e-12 -1.36975e-12 -1.36975e-12 5.11185e-12 5.11185e-12 5.11185e-12 5.11185e-12 -1.90776e-11 -1.90776e-11 5.11185e-12 5.11185e-12 -1.90776e-11 -1.90776e-11 -1.90776e-11 -1.90776e-11 7.11987e-11 7.11987e-11 -1.90776e-11 -1.90776e-11 7.11987e-11 7.11987e-11 7.11987e-11 7.11987e-11 -2.65717e-10 -2.65717e-10 7.11987e-11 7.11987e-11 -2.65717e-10 -2.65717e-10 -1.90776e-11 -1.90776e-11 7.11987e-11 7.11987e-11 -1.90776e-11 -1.90776e-11 7.11987e-11 7.11987e-11 7.11987e-11 7.11987e-11 -2.65717e-10 -2.65717e-10 7.11987e-11 7.11987e-11 -2.65717e-10 -2.65717e-10 -2.65717e-10 -2.65717e-10 9.9167e-10 9.9167e-10 -2.65717e-10 -2.65717e-10 9.9167e-10 9.9167e-10 9.9167e-10 9.9167e-10 -3.70096e-09 -3.70096e-09 9.9167e-10 9.9167e-10 -3.70096e-09 -3.70096e-09 -2.65717e-10 -2.65717e-10 9.9167e-10 9.9167e-10 -2.65717e-10 -2.65717e-10 9.9167e-10 9.9167e-10 9.9167e-10 9.9167e-10 -3.70096e-09 -3.70096e-09 9.9167e-10 9.9167e-10 -3.70096e-09 -3.70096e-09 -3.70096e-09 -3.70096e-09 1.38122e-08 1.38122e-08 -3.70096e-09 -3.70096e-09 1.38122e-08 1.38122e-08 1.38122e-08 1.38122e-08 -5.15478e-08 -5.15478e-08 1.38122e-08 1.38122e-08 -5.15478e-08 -5.15478e-08 -3.70096e-09 -3.70096e-09 1.38122e-08 1.38122e-08 -3.70096e-09 -3.70096e-09 1.38122e-08 1.38122e-08 1.38122e-08 1.38122e-08 -5.15478e-08 -5.15478e-08 1.38122e-08 1.38122e-08 -5.15478e-08 -5.15478e-08 -2.65717e-10 -2.65717e-10 9.9167e-10 9.9167e-10 -2.65717e-10 -2.65717e-10 9.9167e-10 9.9167e-10 9.9167e-10 9.9167e-10 -3.70096e-09 -3.70096e-09 9.9167e-10 9.9167e-10 -3.70096e-09 -3.70096e-09 -2.65717e-10 -2.65717e-1