# vtk DataFile Version 3.0
#This file was generated by the deal.II library on 2022/11/2 at 18:46:22
ASCII
DATASET UNSTRUCTURED_GRID

POINTS 4096 double
0 0.5 0
0.03125 0.5 0
0 0.53125 0
0.03125 0.53125 0
0.03125 0.5 0
0.0625 0.5 0
0.03125 0.53125 0
0.0625 0.53125 0
0 0.53125 0
0.03125 0.53125 0
0 0.5625 0
0.03125 0.5625 0
0.03125 0.53125 0
0.0625 0.53125 0
0.03125 0.5625 0
0.0625 0.5625 0
0.0625 0.5 0
0.09375 0.5 0
0.0625 0.53125 0
0.09375 0.53125 0
0.09375 0.5 0
0.125 0.5 0
0.09375 0.53125 0
0.125 0.53125 0
0.0625 0.53125 0
0.09375 0.53125 0
0.0625 0.5625 0
0.09375 0.5625 0
0.09375 0.53125 0
0.125 0.53125 0
0.09375 0.5625 0
0.125 0.5625 0
0 0.5625 0
0.03125 0.5625 0
0 0.59375 0
0.03125 0.59375 0
0.03125 0.5625 0
0.0625 0.5625 0
0.03125 0.59375 0
0.0625 0.59375 0
0 0.59375 0
0.03125 0.59375 0
0 0.625 0
0.03125 0.625 0
0.03125 0.59375 0
0.0625 0.59375 0
0.03125 0.625 0
0.0625 0.625 0
0.0625 0.5625 0
0.09375 0.5625 0
0.0625 0.59375 0
0.09375 0.59375 0
0.09375 0.5625 0
0.125 0.5625 0
0.09375 0.59375 0
0.125 0.59375 0
0.0625 0.59375 0
0.09375 0.59375 0
0.0625 0.625 0
0.09375 0.625 0
0.09375 0.59375 0
0.125 0.59375 0
0.09375 0.625 0
0.125 0.625 0
0.125 0.5 0
0.15625 0.5 0
0.125 0.53125 0
0.15625 0.53125 0
0.15625 0.5 0
0.1875 0.5 0
0.15625 0.53125 0
0.1875 0.53125 0
0.125 0.53125 0
0.15625 0.53125 0
0.125 0.5625 0
0.15625 0.5625 0
0.15625 0.53125 0
0.1875 0.53125 0
0.15625 0.5625 0
0.1875 0.5625 0
0.1875 0.5 0
0.21875 0.5 0
0.1875 0.53125 0
0.21875 0.53125 0
0.21875 0.5 0
0.25 0.5 0
0.21875 0.53125 0
0.25 0.53125 0
0.1875 0.53125 0
0.21875 0.53125 0
0.1875 0.5625 0
0.21875 0.5625 0
0.21875 0.53125 0
0.25 0.53125 0
0.21875 0.5625 0
0.25 0.5625 0
0.125 0.5625 0
0.15625 0.5625 0
0.125 0.59375 0
0.15625 0.59375 0
0.15625 0.5625 0
0.1875 0.5625 0
0.15625 0.59375 0
0.1875 0.59375 0
0.125 0.59375 0
0.15625 0.59375 0
0.125 0.625 0
0.15625 0.625 0
0.15625 0.59375 0
0.1875 0.59375 0
0.15625 0.625 0
0.1875 0.625 0
0.1875 0.5625 0
0.21875 0.5625 0
0.1875 0.59375 0
0.21875 0.59375 0
0.21875 0.5625 0
0.25 0.5625 0
0.21875 0.59375 0
0.25 0.59375 0
0.1875 0.59375 0
0.21875 0.59375 0
0.1875 0.625 0
0.21875 0.625 0
0.21875 0.59375 0
0.25 0.59375 0
0.21875 0.625 0
0.25 0.625 0
0 0.625 0
0.03125 0.625 0
0 0.65625 0
0.03125 0.65625 0
0.03125 0.625 0
0.0625 0.625 0
0.03125 0.65625 0
0.0625 0.65625 0
0 0.65625 0
0.03125 0.65625 0
0 0.6875 0
0.03125 0.6875 0
0.03125 0.65625 0
0.0625 0.65625 0
0.03125 0.6875 0
0.0625 0.6875 0
0.0625 0.625 0
0.09375 0.625 0
0.0625 0.65625 0
0.09375 0.65625 0
0.09375 0.625 0
0.125 0.625 0
0.09375 0.65625 0
0.125 0.65625 0
0.0625 0.65625 0
0.09375 0.65625 0
0.0625 0.6875 0
0.09375 0.6875 0
0.09375 0.65625 0
0.125 0.65625 0
0.09375 0.6875 0
0.125 0.6875 0
0 0.6875 0
0.03125 0.6875 0
0 0.71875 0
0.03125 0.71875 0
0.03125 0.6875 0
0.0625 0.6875 0
0.03125 0.71875 0
0.0625 0.71875 0
0 0.71875 0
0.03125 0.71875 0
0 0.75 0
0.03125 0.75 0
0.03125 0.71875 0
0.0625 0.71875 0
0.03125 0.75 0
0.0625 0.75 0
0.0625 0.6875 0
0.09375 0.6875 0
0.0625 0.71875 0
0.09375 0.71875 0
0.09375 0.6875 0
0.125 0.6875 0
0.09375 0.71875 0
0.125 0.71875 0
0.0625 0.71875 0
0.09375 0.71875 0
0.0625 0.75 0
0.09375 0.75 0
0.09375 0.71875 0
0.125 0.71875 0
0.09375 0.75 0
0.125 0.75 0
0.125 0.625 0
0.15625 0.625 0
0.125 0.65625 0
0.15625 0.65625 0
0.15625 0.625 0
0.1875 0.625 0
0.15625 0.65625 0
0.1875 0.65625 0
0.125 0.65625 0
0.15625 0.65625 0
0.125 0.6875 0
0.15625 0.6875 0
0.15625 0.65625 0
0.1875 0.65625 0
0.15625 0.6875 0
0.1875 0.6875 0
0.1875 0.625 0
0.21875 0.625 0
0.1875 0.65625 0
0.21875 0.65625 0
0.21875 0.625 0
0.25 0.625 0
0.21875 0.65625 0
0.25 0.65625 0
0.1875 0.65625 0
0.21875 0.65625 0
0.1875 0.6875 0
0.21875 0.6875 0
0.21875 0.65625 0
0.25 0.65625 0
0.21875 0.6875 0
0.25 0.6875 0
0.125 0.6875 0
0.15625 0.6875 0
0.125 0.71875 0
0.15625 0.71875 0
0.15625 0.6875 0
0.1875 0.6875 0
0.15625 0.71875 0
0.1875 0.71875 0
0.125 0.71875 0
0.15625 0.71875 0
0.125 0.75 0
0.15625 0.75 0
0.15625 0.71875 0
0.1875 0.71875 0
0.15625 0.75 0
0.1875 0.75 0
0.1875 0.6875 0
0.21875 0.6875 0
0.1875 0.71875 0
0.21875 0.71875 0
0.21875 0.6875 0
0.25 0.6875 0
0.21875 0.71875 0
0.25 0.71875 0
0.1875 0.71875 0
0.21875 0.71875 0
0.1875 0.75 0
0.21875 0.75 0
0.21875 0.71875 0
0.25 0.71875 0
0.21875 0.75 0
0.25 0.75 0
0.25 0.5 0
0.28125 0.5 0
0.25 0.53125 0
0.28125 0.53125 0
0.28125 0.5 0
0.3125 0.5 0
0.28125 0.53125 0
0.3125 0.53125 0
0.25 0.53125 0
0.28125 0.53125 0
0.25 0.5625 0
0.28125 0.5625 0
0.28125 0.53125 0
0.3125 0.53125 0
0.28125 0.5625 0
0.3125 0.5625 0
0.3125 0.5 0
0.34375 0.5 0
0.3125 0.53125 0
0.34375 0.53125 0
0.34375 0.5 0
0.375 0.5 0
0.34375 0.53125 0
0.375 0.53125 0
0.3125 0.53125 0
0.34375 0.53125 0
0.3125 0.5625 0
0.34375 0.5625 0
0.34375 0.53125 0
0.375 0.53125 0
0.34375 0.5625 0
0.375 0.5625 0
0.25 0.5625 0
0.28125 0.5625 0
0.25 0.59375 0
0.28125 0.59375 0
0.28125 0.5625 0
0.3125 0.5625 0
0.28125 0.59375 0
0.3125 0.59375 0
0.25 0.59375 0
0.28125 0.59375 0
0.25 0.625 0
0.28125 0.625 0
0.28125 0.59375 0
0.3125 0.59375 0
0.28125 0.625 0
0.3125 0.625 0
0.3125 0.5625 0
0.34375 0.5625 0
0.3125 0.59375 0
0.34375 0.59375 0
0.34375 0.5625 0
0.375 0.5625 0
0.34375 0.59375 0
0.375 0.59375 0
0.3125 0.59375 0
0.34375 0.59375 0
0.3125 0.625 0
0.34375 0.625 0
0.34375 0.59375 0
0.375 0.59375 0
0.34375 0.625 0
0.375 0.625 0
0.375 0.5 0
0.40625 0.5 0
0.375 0.53125 0
0.40625 0.53125 0
0.40625 0.5 0
0.4375 0.5 0
0.40625 0.53125 0
0.4375 0.53125 0
0.375 0.53125 0
0.40625 0.53125 0
0.375 0.5625 0
0.40625 0.5625 0
0.40625 0.53125 0
0.4375 0.53125 0
0.40625 0.5625 0
0.4375 0.5625 0
0.4375 0.5 0
0.46875 0.5 0
0.4375 0.53125 0
0.46875 0.53125 0
0.46875 0.5 0
0.5 0.5 0
0.46875 0.53125 0
0.5 0.53125 0
0.4375 0.53125 0
0.46875 0.53125 0
0.4375 0.5625 0
0.46875 0.5625 0
0.46875 0.53125 0
0.5 0.53125 0
0.46875 0.5625 0
0.5 0.5625 0
0.375 0.5625 0
0.40625 0.5625 0
0.375 0.59375 0
0.40625 0.59375 0
0.40625 0.5625 0
0.4375 0.5625 0
0.40625 0.59375 0
0.4375 0.59375 0
0.375 0.59375 0
0.40625 0.59375 0
0.375 0.625 0
0.40625 0.625 0
0.40625 0.59375 0
0.4375 0.59375 0
0.40625 0.625 0
0.4375 0.625 0
0.4375 0.5625 0
0.46875 0.5625 0
0.4375 0.59375 0
0.46875 0.59375 0
0.46875 0.5625 0
0.5 0.5625 0
0.46875 0.59375 0
0.5 0.59375 0
0.4375 0.59375 0
0.46875 0.59375 0
0.4375 0.625 0
0.46875 0.625 0
0.46875 0.59375 0
0.5 0.59375 0
0.46875 0.625 0
0.5 0.625 0
0.25 0.625 0
0.28125 0.625 0
0.25 0.65625 0
0.28125 0.65625 0
0.28125 0.625 0
0.3125 0.625 0
0.28125 0.65625 0
0.3125 0.65625 0
0.25 0.65625 0
0.28125 0.65625 0
0.25 0.6875 0
0.28125 0.6875 0
0.28125 0.65625 0
0.3125 0.65625 0
0.28125 0.6875 0
0.3125 0.6875 0
0.3125 0.625 0
0.34375 0.625 0
0.3125 0.65625 0
0.34375 0.65625 0
0.34375 0.625 0
0.375 0.625 0
0.34375 0.65625 0
0.375 0.65625 0
0.3125 0.65625 0
0.34375 0.65625 0
0.3125 0.6875 0
0.34375 0.6875 0
0.34375 0.65625 0
0.375 0.65625 0
0.34375 0.6875 0
0.375 0.6875 0
0.25 0.6875 0
0.28125 0.6875 0
0.25 0.71875 0
0.28125 0.71875 0
0.28125 0.6875 0
0.3125 0.6875 0
0.28125 0.71875 0
0.3125 0.71875 0
0.25 0.71875 0
0.28125 0.71875 0
0.25 0.75 0
0.28125 0.75 0
0.28125 0.71875 0
0.3125 0.71875 0
0.28125 0.75 0
0.3125 0.75 0
0.3125 0.6875 0
0.34375 0.6875 0
0.3125 0.71875 0
0.34375 0.71875 0
0.34375 0.6875 0
0.375 0.6875 0
0.34375 0.71875 0
0.375 0.71875 0
0.3125 0.71875 0
0.34375 0.71875 0
0.3125 0.75 0
0.34375 0.75 0
0.34375 0.71875 0
0.375 0.71875 0
0.34375 0.75 0
0.375 0.75 0
0.375 0.625 0
0.40625 0.625 0
0.375 0.65625 0
0.40625 0.65625 0
0.40625 0.625 0
0.4375 0.625 0
0.40625 0.65625 0
0.4375 0.65625 0
0.375 0.65625 0
0.40625 0.65625 0
0.375 0.6875 0
0.40625 0.6875 0
0.40625 0.65625 0
0.4375 0.65625 0
0.40625 0.6875 0
0.4375 0.6875 0
0.4375 0.625 0
0.46875 0.625 0
0.4375 0.65625 0
0.46875 0.65625 0
0.46875 0.625 0
0.5 0.625 0
0.46875 0.65625 0
0.5 0.65625 0
0.4375 0.65625 0
0.46875 0.65625 0
0.4375 0.6875 0
0.46875 0.6875 0
0.46875 0.65625 0
0.5 0.65625 0
0.46875 0.6875 0
0.5 0.6875 0
0.375 0.6875 0
0.40625 0.6875 0
0.375 0.71875 0
0.40625 0.71875 0
0.40625 0.6875 0
0.4375 0.6875 0
0.40625 0.71875 0
0.4375 0.71875 0
0.375 0.71875 0
0.40625 0.71875 0
0.375 0.75 0
0.40625 0.75 0
0.40625 0.71875 0
0.4375 0.71875 0
0.40625 0.75 0
0.4375 0.75 0
0.4375 0.6875 0
0.46875 0.6875 0
0.4375 0.71875 0
0.46875 0.71875 0
0.46875 0.6875 0
0.5 0.6875 0
0.46875 0.71875 0
0.5 0.71875 0
0.4375 0.71875 0
0.46875 0.71875 0
0.4375 0.75 0
0.46875 0.75 0
0.46875 0.71875 0
0.5 0.71875 0
0.46875 0.75 0
0.5 0.75 0
0 0.75 0
0.03125 0.75 0
0 0.78125 0
0.03125 0.78125 0
0.03125 0.75 0
0.0625 0.75 0
0.03125 0.78125 0
0.0625 0.78125 0
0 0.78125 0
0.03125 0.78125 0
0 0.8125 0
0.03125 0.8125 0
0.03125 0.78125 0
0.0625 0.78125 0
0.03125 0.8125 0
0.0625 0.8125 0
0.0625 0.75 0
0.09375 0.75 0
0.0625 0.78125 0
0.09375 0.78125 0
0.09375 0.75 0
0.125 0.75 0
0.09375 0.78125 0
0.125 0.78125 0
0.0625 0.78125 0
0.09375 0.78125 0
0.0625 0.8125 0
0.09375 0.8125 0
0.09375 0.78125 0
0.125 0.78125 0
0.09375 0.8125 0
0.125 0.8125 0
0 0.8125 0
0.03125 0.8125 0
0 0.84375 0
0.03125 0.84375 0
0.03125 0.8125 0
0.0625 0.8125 0
0.03125 0.84375 0
0.0625 0.84375 0
0 0.84375 0
0.03125 0.84375 0
0 0.875 0
0.03125 0.875 0
0.03125 0.84375 0
0.0625 0.84375 0
0.03125 0.875 0
0.0625 0.875 0
0.0625 0.8125 0
0.09375 0.8125 0
0.0625 0.84375 0
0.09375 0.84375 0
0.09375 0.8125 0
0.125 0.8125 0
0.09375 0.84375 0
0.125 0.84375 0
0.0625 0.84375 0
0.09375 0.84375 0
0.0625 0.875 0
0.09375 0.875 0
0.09375 0.84375 0
0.125 0.84375 0
0.09375 0.875 0
0.125 0.875 0
0.125 0.75 0
0.15625 0.75 0
0.125 0.78125 0
0.15625 0.78125 0
0.15625 0.75 0
0.1875 0.75 0
0.15625 0.78125 0
0.1875 0.78125 0
0.125 0.78125 0
0.15625 0.78125 0
0.125 0.8125 0
0.15625 0.8125 0
0.15625 0.78125 0
0.1875 0.78125 0
0.15625 0.8125 0
0.1875 0.8125 0
0.1875 0.75 0
0.21875 0.75 0
0.1875 0.78125 0
0.21875 0.78125 0
0.21875 0.75 0
0.25 0.75 0
0.21875 0.78125 0
0.25 0.78125 0
0.1875 0.78125 0
0.21875 0.78125 0
0.1875 0.8125 0
0.21875 0.8125 0
0.21875 0.78125 0
0.25 0.78125 0
0.21875 0.8125 0
0.25 0.8125 0
0.125 0.8125 0
0.15625 0.8125 0
0.125 0.84375 0
0.15625 0.84375 0
0.15625 0.8125 0
[...]
POINT_DATA 4096
SCALARS x_dis double 1
LOOKUP_TABLE default
-2.30066e-12 -1.81791e-12 2.03972e-12 4.01214e-12 -1.81791e-12 -1.22062e-12 4.01214e-12 4.94824e-12 2.03972e-12 4.01214e-12 -1.87321e-11 -1.4572e-11 4.01214e-12 4.94824e-12 -1.4572e-11 -1.84232e-11 -1.22062e-12 -1.0268e-12 4.94824e-12 4.73191e-12 -1.0268e-12 -1.3079e-12 4.73191e-12 5.77205e-12 4.94824e-12 4.73191e-12 -1.84232e-11 -1.77252e-11 4.73191e-12 5.77205e-12 -1.77252e-11 -2.06991e-11 -1.87321e-11 -1.4572e-11 -2.21117e-11 7.31119e-12 -1.4572e-11 -1.84232e-11 7.31119e-12 5.49764e-11 -2.21117e-11 7.31119e-12 -7.95595e-11 -8.56645e-12 7.31119e-12 5.49764e-11 -8.56645e-12 -1.42281e-10 -1.84232e-11 -1.77252e-11 5.49764e-11 6.33177e-11 -1.77252e-11 -2.06991e-11 6.33177e-11 7.39e-11 5.49764e-11 6.33177e-11 -1.42281e-10 -1.7e-10 6.33177e-11 7.39e-11 -1.7e-10 -1.87776e-10 -1.3079e-12 -1.30335e-12 5.77205e-12 5.62931e-12 -1.30335e-12 -1.25658e-12 5.62931e-12 5.40339e-12 5.77205e-12 5.62931e-12 -2.06991e-11 -1.96392e-11 5.62931e-12 5.40339e-12 -1.96392e-11 -1.92005e-11 -1.25658e-12 -1.27452e-12 5.40339e-12 5.48425e-12 -1.27452e-12 -1.27607e-12 5.48425e-12 5.48593e-12 5.40339e-12 5.48425e-12 -1.92005e-11 -1.9542e-11 5.48425e-12 5.48593e-12 -1.9542e-11 -1.94724e-11 -2.06991e-11 -1.96392e-11 7.39e-11 6.96266e-11 -1.96392e-11 -1.92005e-11 6.96266e-11 6.82276e-11 7.39e-11 6.96266e-11 -1.87776e-10 -1.7392e-10 6.96266e-11 6.82276e-11 -1.7392e-10 -1.72759e-10 -1.92005e-11 -1.9542e-11 6.82276e-11 6.91225e-11 -1.9542e-11 -1.94724e-11 6.91225e-11 6.89491e-11 6.82276e-11 6.91225e-11 -1.72759e-10 -1.75105e-10 6.91225e-11 6.89491e-11 -1.75105e-10 -1.7435e-10 -7.95595e-11 -8.56645e-12 -8.19034e-10 -4.62155e-10 -8.56645e-12 -1.42281e-10 -4.62155e-10 2.13329e-10 -8.19034e-10 -4.62155e-10 2.9689e-10 1.17963e-09 -4.62155e-10 2.13329e-10 1.17963e-09 -6.10804e-11 -1.42281e-10 -1.7e-10 2.13329e-10 4.0964e-10 -1.7e-10 -1.87776e-10 4.0964e-10 4.54876e-10 2.13329e-10 4.0964e-10 -6.10804e-11 -3.93738e-10 4.0964e-10 4.54876e-10 -3.93738e-10 -1.67601e-10 2.9689e-10 1.17963e-09 -1.33105e-08 -7.92746e-09 1.17963e-09 -6.10804e-11 -7.92746e-09 -3.28141e-09 -1.33105e-08 -7.92746e-09 7.69821e-09 9.7686e-09 -7.92746e-09 -3.28141e-09 9.7686e-09 1.22449e-08 -6.10804e-11 -3.93738e-10 -3.28141e-09 -1.66904e-09 -3.93738e-10 -1.67601e-10 -1.66904e-09 -2.62175e-09 -3.28141e-09 -1.66904e-09 1.22449e-08 1.5396e-08 -1.66904e-09 -2.62175e-09 1.5396e-08 2.03226e-08 -1.87776e-10 -1.7392e-10 4.54876e-10 4.164e-10 -1.7392e-10 -1.72759e-10 4.164e-10 4.16139e-10 4.54876e-10 4.164e-10 -1.67601e-10 -9.95637e-11 4.164e-10 4.16139e-10 -9.95637e-11 -1.3195e-10 -1.72759e-10 -1.75105e-10 4.16139e-10 4.17431e-10 -1.75105e-10 -1.7435e-10 4.17431e-10 4.17023e-10 4.16139e-10 4.17431e-10 -1.3195e-10 -1.2666e-10 4.17431e-10 4.17023e-10 -1.2666e-10 -1.26143e-10 -1.67601e-10 -9.95637e-11 -2.62175e-09 -2.66368e-09 -9.95637e-11 -1.3195e-10 -2.66368e-09 -2.63156e-09 -2.62175e-09 -2.66368e-09 2.03226e-08 1.99653e-08 -2.66368e-09 -2.63156e-09 1.99653e-08 1.95895e-08 -1.3195e-10 -1.2666e-10 -2.63156e-09 -2.65922e-09 -1.2666e-10 -1.26143e-10 -2.65922e-09 -2.64887e-09 -2.63156e-09 -2.65922e-09 1.95895e-08 1.9694e-08 -2.65922e-09 -2.64887e-09 1.9694e-08 1.966e-08 -1.27607e-12 -1.27235e-12 5.48593e-12 5.47495e-12 -1.27235e-12 -1.27414e-12 5.47495e-12 5.47958e-12 5.48593e-12 5.47495e-12 -1.94724e-11 -1.94607e-11 5.47495e-12 5.47958e-12 -1.94607e-11 -1.94728e-11 -1.27414e-12 -1.2734e-12 5.47958e-12 5.47799e-12 -1.2734e-12 -1.27426e-12 5.47799e-12 5.48003e-12 5.47958e-12 5.47799e-12 -1.94728e-11 -1.94678e-11 5.47799e-12 5.48003e-12 -1.94678e-11 -1.94701e-11 -1.94724e-11 -1.94607e-11 6.89491e-11 6.89508e-11 -1.94607e-11 -1.94728e-11 6.89508e-11 6.89555e-11 6.89491e-11 6.89508e-11 -1.7435e-10 -1.74461e-10 6.89508e-11 6.89555e-11 -1.74461e-10 -1.74459e-10 -1.94728e-11 -1.94678e-11 6.89555e-11 6.89548e-11 -1.94678e-11 -1.94701e-11 6.89548e-11 6.89562e-11 6.89555e-11 6.89548e-11 -1.74459e-10 -1.74458e-10 6.89548e-11 6.89562e-11 -1.74458e-10 -1.74459e-10 -1.27426e-12 -1.27219e-12 5.48003e-12 5.4729e-12 -1.27219e-12 -1.27845e-12 5.4729e-12 5.49731e-12 5.48003e-12 5.4729e-12 -1.94701e-11 -1.94673e-11 5.4729e-12 5.49731e-12 -1.94673e-11 -1.94771e-11 -1.27845e-12 -1.29404e-12 5.49731e-12 5.38482e-12 -1.29404e-12 -1.31138e-12 5.38482e-12 5.5386e-12 5.49731e-12 5.38482e-12 -1.94771e-11 -1.94524e-11 5.38482e-12 5.5386e-12 -1.94524e-11 -1.9506e-11 -1.94701e-11 -1.94673e-11 6.89562e-11 6.89535e-11 -1.94673e-11 -1.94771e-11 6.89535e-11 6.89579e-11 6.89562e-11 6.89535e-11 -1.74459e-10 -1.74457e-10 6.89535e-11 6.89579e-11 -1.74457e-10 -1.74459e-10 -1.94771e-11 -1.94524e-11 6.89579e-11 6.89468e-11 -1.94524e-11 -1.9506e-11 6.89468e-11 6.89572e-11 6.89579e-11 6.89468e-11 -1.74459e-10 -1.74456e-10 6.89468e-11 6.89572e-11 -1.74456e-10 -1.74458e-10 -1.7435e-10 -1.74461e-10 4.17023e-10 4.1716e-10 -1.74461e-10 -1.74459e-10 4.1716e-10 4.17032e-10 4.17023e-10 4.1716e-10 -1.26143e-10 -1.26071e-10 4.1716e-10 4.17032e-10 -1.26071e-10 -1.26061e-10 -1.74459e-10 -1.74458e-10 4.17032e-10 4.17118e-10 -1.74458e-10 -1.74459e-10 4.17118e-10 4.17079e-10 4.17032e-10 4.17118e-10 -1.26061e-10 -1.26226e-10 4.17118e-10 4.17079e-10 -1.26226e-10 -1.26085e-10 -1.26143e-10 -1.26071e-10 -2.64887e-09 -2.65436e-09 -1.26071e-10 -1.26061e-10 -2.65436e-09 -2.65253e-09 -2.64887e-09 -2.65436e-09 1.966e-08 1.9676e-08 -2.65436e-09 -2.65253e-09 1.9676e-08 1.96699e-08 -1.26061e-10 -1.26226e-10 -2.65253e-09 -2.65265e-09 -1.26226e-10 -1.26085e-10 -2.65265e-09 -2.65292e-09 -2.65253e-09 -2.65265e-09 1.96699e-08 1.96707e-08 -2.65265e-09 -2.65292e-09 1.96707e-08 1.96713e-08 -1.74459e-10 -1.74457e-10 4.17079e-10 4.1709e-10 -1.74457e-10 -1.74459e-10 4.1709e-10 4.17089e-10 4.17079e-10 4.1709e-10 -1.26085e-10 -1.26151e-10 4.1709e-10 4.17089e-10 -1.26151e-10 -1.26132e-10 -1.74459e-10 -1.74456e-10 4.17089e-10 4.17088e-10 -1.74456e-10 -1.74458e-10 4.17088e-10 4.17089e-10 4.17089e-10 4.17088e-10 -1.26132e-10 -1.26134e-10 4.17088e-10 4.17089e-10 -1.26134e-10 -1.26135e-10 -1.26085e-10 -1.26151e-10 -2.65292e-09 -2.65273e-09 -1.26151e-10 -1.26132e-10 -2.65273e-09 -2.65281e-09 -2.65292e-09 -2.65273e-09 1.96713e-08 1.96708e-08 -2.65273e-09 -2.65281e-09 1.96708e-08 1.9671e-08 -1.26132e-10 -1.26134e-10 -2.65281e-09 -2.65278e-09 -1.26134e-10 -1.26135e-10 -2.65278e-09 -2.65279e-09 -2.65281e-09 -2.65278e-09 1.9671e-08 1.9671e-08 -2.65278e-09 -2.65279e-09 1.9671e-08 1.9671e-08 7.69821e-09 9.7686e-09 -1.60995e-07 -8.34465e-08 9.7686e-09 1.22449e-08 -8.34465e-08 -8.81537e-08 -1.60995e-07 -8.34465e-08 -9.6589e-08 1.3201e-08 -8.34465e-08 -8.81537e-08 1.3201e-08 1.98824e-07 1.22449e-08 1.5396e-08 -8.81537e-08 -8.75256e-08 1.5396e-08 2.03226e-08 -8.75256e-08 -9.63607e-08 -8.81537e-08 -8.75256e-08 1.98824e-07 2.38665e-07 -8.75256e-08 -9.63607e-08 2.38665e-07 2.50661e-07 -9.6589e-08 1.3201e-08 -8.14467e-07 -3.34758e-07 1.3201e-08 1.98824e-07 -3.34758e-07 -6.48319e-07 -8.14467e-07 -3.34758e-07 -7.31785e-06 -4.74655e-06 -3.34758e-07 -6.48319e-07 -4.74655e-06 -1.98029e-06 1.98824e-07 2.38665e-07 -6.48319e-07 -6.47606e-07 2.38665e-07 2.50661e-07 -6.47606e-07 -5.52639e-07 -6.48319e-07 -6.47606e-07 -1.98029e-06 -5.00409e-07 -6.47606e-07 -5.52639e-07 -5.00409e-07 -2.74441e-07 2.03226e-08 1.99653e-08 -9.63607e-08 -9.60849e-08 1.99653e-08 1.95895e-08 -9.60849e-08 -9.58919e-08 -9.63607e-08 -9.60849e-08 2.50661e-07 2.42133e-07 -9.60849e-08 -9.58919e-08 2.42133e-07 2.4082e-07 1.95895e-08 1.9694e-08 -9.58919e-08 -9.59854e-08 1.9694e-08 1.966e-08 -9.59854e-08 -9.5927e-08 -9.58919e-08 -9.59854e-08 2.4082e-07 2.4138e-07 -9.59854e-08 -9.5927e-08 2.4138e-07 2.41298e-07 2.50661e-07 2.42133e-07 -5.52639e-07 -5.61498e-07 2.42133e-07 2.4082e-07 -5.61498e-07 -5.69317e-07 -5.52639e-07 -5.61498e-07 -2.74441e-07 -2.73074e-07 -5.61498e-07 -5.69317e-07 -2.73074e-07 -3.27217e-07 2.4082e-07 2.4138e-07 -5.69317e-07 -5.67579e-07 2.4138e-07 2.41298e-07 -5.67579e-07 -5.67975e-07 -5.69317e-07 -5.67579e-07 -3.27217e-07 -3.30855e-07 -5.67579e-07 -5.67975e-07 -3.30855e-07 -3.21481e-07 -7.31785e-06 -4.74655e-06 -6.86158e-06 -2.85012e-07 -4.74655e-06 -1.98029e-06 -2.85012e-07 5.35407e-06 -6.86158e-06 -2.85012e-07 -4.43651e-05 -8.14986e-07 -2.85012e-07 5.35407e-06 -8.14986e-07 -2.14287e-06 -1.98029e-06 -5.00409e-07 5.35407e-06 7.51654e-06 -5.00409e-07 -2.74441e-07 7.51654e-06 7.77298e-06 5.35407e-06 7.51654e-06 -2.14287e-06 -1.12635e-06 7.51654e-06 7.77298e-06 -1.12635e-06 -6.78418e-07 -4.43651e-05 -8.14986e-07 -0.000136096 -7.18539e-05 -8.14986e-07 -2.14287e-06 -7.18539e-05 -5.20909e-05 -0.000136096 -7.18539e-05 -0.00026 -0.00026 -7.18539e-05 -5.20909e-05 -0.00026 -0.00026 -2.14287e-06 -1.12635e-06 -5.20909e-05 -5.06411e-05 -1.12635e-06 -6.78418e-07 -5.06411e-05 -5.07448e-05 -5.20909e-05 -5.06411e-05 -0.00026 -0.00026 -5.06411e-05 -5.07448e-05 -0.00026 -0.00026 -2.74441e-07 -2.73074e-07 7.77298e-06 7.67871e-06 -2.73074e-07 -3.27217e-07 7.67871e-06 7.59839e-06 7.77298e-06 7.67871e-06 -6.78418e-07 -9.42682e-07 7.67871e-06 7.59839e-06 -9.42682e-07 -9.86995e-07 -3.27217e-07 -3.30855e-07 7.59839e-06 7.61406e-06 -3.30855e-07 -3.21481e-07 7.61406e-06 7.62063e-06 7.59839e-06 7.61406e-06 -9.86995e-07 -9.45328e-07 7.61406e-06 7.62063e-06 -9.45328e-07 -9.56973e-07 -6.78418e-07 -9.42682e-07 -5.07448e-05 -5.08708e-05 -9.42682e-07 -9.86995e-07 -5.08708e-05 -5.09414e-05 -5.07448e-05 -5.08708e-05 -0.00026 -0.00026 -5.08708e-05 -5.09414e-05 -0.00026 -0.00026 -9.86995e-07 -9.45328e-07 -5.09414e-05 -5.09214e-05 -9.45328e-07 -9.56973e-07 -5.09214e-05 -5.09176e-05 -5.09414e-05 -5.09214e-05 -0.00026 -0.00026 -5.09214e-05 -5.09176e-05 -0.00026 -0.00026 1.966e-08 1.9676e-08 -9.5927e-08 -9.59723e-08 1.9676e-08 1.96699e-08 -9.59723e-08 -9.59518e-08 -9.5927e-08 -9.59723e-08 2.41298e-07 2.41315e-07 -9.59723e-08 -9.59518e-08 2.41315e-07 2.41296e-07 1.96699e-08 1.96707e-08 -9.59518e-08 -9.59573e-08 1.96707e-08 1.96713e-08 -9.59573e-08 -9.59569e-08 -9.59518e-08 -9.59573e-08 2.41296e-07 2.41309e-07 -9.59573e-08 -9.59569e-08 2.41309e-07 2.41303e-07 2.41298e-07 2.41315e-07 -5.67975e-07 -5.67823e-07 2.41315e-07 2.41296e-07 -5.67823e-07 -5.67857e-07 -5.67975e-07 -5.67823e-07 -3.21481e-07 -3.248e-07 -5.67823e-07 -5.67857e-07 -3.248e-07 -3.24527e-07 2.41296e-07 2.41309e-07 -5.67857e-07 -5.67875e-07 2.41309e-07 2.41303e-07 -5.67875e-07 -5.67854e-07 -5.67857e-07 -5.67875e-07 -3.24527e-07 -3.2427e-07 -5.67875e-07 -5.67854e-07 -3.2427e-07 -3.2442e-07 1.96713e-08 1.96708e-08 -9.59569e-08 -9.59564e-08 1.96708e-08 1.9671e-08 -9.59564e-08 -9.59567e-08 -9.59569e-08 -9.59564e-08 2.41303e-07 2.41305e-07 -9.59564e-08 -9.59567e-08 2.41305e-07 2.41305e-07 1.9671e-08 1.9671e-08 -9.59567e-08 -9.59566e-08 1.9671e-08 1.9671e-08 -9.59566e-08 -9.59566e-08 -9.59567e-08 -9.59566e-08 2.41305e-07 2.41305e-07 -9.59566e-08 -9.59566e-08 2.41305e-07 2.41305e-07 2.41303e-07 2.41305e-07 -5.67854e-07 -5.67865e-07 2.41305e-07 2.41305e-07 -5.67865e-07 -5.67861e-07 -5.67854e-07 -5.67865e-07 -3.2442e-07 -3.24375e-07 -5.67865e-07 -5.67861e-07 -3.24375e-07 -3.24382e-07 2.41305e-07 2.41305e-07 -5.67861e-07 -5.67862e-07 2.41305e-07 2.41305e-07 -5.67862e-07 -5.67862e-07 -5.67861e-07 -5.67862e-07 -3.24382e-07 -3.24383e-07 -5.67862e-07 -5.67862e-07 -3.24383e-07 -3.24382e-07 -3.21481e-07 -3.248e-07 7.62063e-06 7.6156e-06 -3.248e-07 -3.24527e-07 7.6156e-06 7.61708e-06 7.62063e-06 7.6156e-06 -9.56973e-07 -9.56844e-07 7.6156e-06 7.61708e-06 -9.56844e-07 -9.55594e-07 -3.24527e-07 -3.2427e-07 7.61708e-06 7.61697e-06 -3.2427e-07 -3.2442e-07 7.61697e-06 7.61685e-06 7.61708e-06 7.61697e-06 -9.55594e-07 -9.56212e-07 7.61697e-06 7.61685e-06 -9.56212e-07 -9.56033e-07 -9.56973e-07 -9.56844e-07 -5.09176e-05 -5.09213e-05 -9.56844e-07 -9.55594e-07 -5.09213e-05 -5.09202e-05 -5.09176e-05 -5.09213e-05 -0.00026 -0.00026 -5.09213e-05 -5.09202e-05 -0.00026 -0.00026 -9.55594e-07 -9.56212e-07 -5.09202e-05 -5.09203e-05 -9.56212e-07 -9.56033e-07 -5.09203e-05 -5.09204e-05 -5.09202e-05 -5.09203e-05 -0.00026 -0.00026 -5.09203e-05 -5.09204e-05 -0.00026 -0.00026 -3.2442e-07 -3.24375e-07 7.61685e-06 7.61693e-06 -3.24375e-07 -3.24382e-07 7.61693e-06 7.6169e-06 7.61685e-06 7.61693e-06 -9.56033e-07 -9.56063e-07 7.61693e-06 7.6169e-06 -9.56063e-07 -9.56065e-07 -3.24382e-07 -3.24383e-07 7.6169e-06 7.61691e-06 -3.24383e-07 -3.24382e-07 7.61691e-06 7.61691e-06 7.6169e-06 7.61691e-06 -9.56065e-07 -9.56061e-07 7.61691e-06 7.61691e-06 -9.56061e-07 -9.56063e-07 -9.56033e-07 -9.56063e-07 -5.09204e-05 -5.09203e-05 -9.56063e-07 -9.56065e-07 -5.09203e-05 -5.09203e-05 -5.09204e-05 -5.09203e-05 -0.00026 -0.00026 -5.09203e-05 -5.09203e-05 -0.00026 -0.00026 -9.56065e-07 -9.56061e-07 -5.09203e-05 -5.09203e-05 -9.56061e-07 -9.56063e-07 -5.09203e-05 -5.09203e-05 -5.09203e-05 -5.09203e-05 -0.00026 -0.00026 -5.09203e-05 -5.09203e-05 -0.00026 -0.00026 -1.31138e-12 -3.00783e-12 5.5386e-12 5.89968e-12 -3.00783e-12 -2.69639e-12 5.89968e-12 5.85927e-12 5.5386e-12 5.89968e-12 -1.9506e-11 -1.95702e-11 5.89968e-12 5.85927e-12 -1.95702e-11 -1.95385e-11 -2.69639e-12 -2.73458e-12 5.85927e-12 5.84329e-12 -2.73458e-12 -2.74387e-12 5.84329e-12 5.84834e-12 5.85927e-12 5.84329e-12 -1.95385e-11 -1.95468e-11 5.84329e-12 5.84834e-12 -1.95468e-11 -1.95424e-11 -1.9506e-11 -1.95702e-11 6.89572e-11 6.89659e-11 -1.95702e-11 -1.95385e-11 6.89659e-11 6.89621e-11 6.89572e-11 6.89659e-11 -1.74458e-10 -1.74459e-10 6.89659e-11 6.89621e-11 -1.74459e-10 -1.74458e-10 -1.95385e-11 -1.95468e-11 6.89621e-11 6.89673e-11 -1.95468e-11 -1.95424e-11 6.89673e-11 6.8965e-11 6.89621e-11 6.89673e-11 -1.74458e-10 -1.7446e-10 6.89673e-11 6.8965e-11 -1.7446e-10 -1.7446e-10 -2.74387e-12 -2.7409e-12 5.84834e-12 5.84741e-12 -2.7409e-12 -2.74213e-12 5.84741e-12 5.84777e-12 5.84834e-12 5.84741e-12 -1.95424e-11 -1.95438e-11 5.84741e-12 5.84777e-12 -1.95438e-11 -1.95445e-11 -2.74213e-12 -2.74098e-12 5.84777e-12 5.84901e-12 -2.74098e-12 -2.73696e-12 5.84901e-12 5.83534e-12 5.84777e-12 5.84901e-12 -1.95445e-11 -1.95491e-11 5.84901e-12 5.83534e-12 -1.95491e-11 -1.95079e-11 -1.95424e-11 -1.95438e-11 6.8965e-11 6.89648e-11 -1.95438e-11 -1.95445e-11 6.89648e-11 6.89628e-11 6.8965e-11 6.89648e-11 -1.7446e-10 -1.74455e-10 6.89648e-11 6.89628e-11 -1.74455e-10 -1.74456e-10 -1.95445e-11 -1.95491e-11 6.89628e-11 6.89903e-11 -1.95491e-11 -1.95079e-11 6.89903e-11 6.88832e-11 6.89628e-11 6.89903e-11 -1.74456e-10 -1.74519e-10 6.89903e-11 6.88832e-11 -1.74519e-10 -1.74254e-10 -1.74458e-10 -1.74459e-10 4.17089e-10 4.17088e-10 -1.74459e-10 -1.74458e-10 4.17088e-10 4.17087e-10 4.17089e-10 4.17088e-10 -1.26135e-10 -1.26133e-10 4.17088e-10 4.17087e-10 -1.26133e-10 -1.26138e-10 -1.74458e-10 -1.7446e-10 4.17087e-10 4.17086e-10 -1.7446e-10 -1.7446e-10 4.17086e-10 4.171e-10 4.17087e-10 4.17086e-10 -1.26138e-10 -1.2612e-10 4.17086e-10 4.171e-10 -1.2612e-10 -1.2617e-10 -1.26135e-10 -1.26133e-10 -2.65279e-09 -2.65279e-09 -1.26133e-10 -1.26138e-10 -2.65279e-09 -2.65277e-09 -2.65279e-09 -2.65279e-09 1.9671e-08 1.9671e-08 -2.65279e-09 -2.65277e-09 1.9671e-08 1.96709e-08 -1.26138e-10 -1.2612e-10 -2.65277e-09 -2.65286e-09 -1.2612e-10 -1.2617e-10 -2.65286e-09 -2.65266e-09 -2.65277e-09 -2.65286e-09 1.96709e-08 1.96711e-08 -2.65286e-09 -2.65266e-09 1.96711e-08 1.9671e-08 -1.7446e-10 -1.74455e-10 4.171e-10 4.17066e-10 -1.74455e-10 -1.74456e-10 4.17066e-10 4.17084e-10 4.171e-10 4.17066e-10 -1.2617e-10 -1.26076e-10 4.17066e-10 4.17084e-10 -1.26076e-10 -1.26171e-10 -1.74456e-10 -1.74519e-10 4.17084e-10 4.17218e-10 -1.74519e-10 -1.74254e-10 4.17218e-10 4.16942e-10 4.17084e-10 4.17218e-10 -1.26171e-10 -1.26179e-10 4.17218e-10 4.16942e-10 -1.26179e-10 -1.26389e-10 -1.2617e-10 -1.26076e-10 -2.65266e-09 -2.65289e-09 -1.26076e-10 -1.26171e-10 -2.65289e-09 -2.65311e-09 -2.65266e-09 -2.65289e-09 1.9671e-08 1.96703e-08 -2.65289e-09 -2.65311e-09 1.96703e-08 1.96732e-08 -1.26171e-10 -1.26179e-10 -2.65311e-09 -2.65182e-09 -1.26179e-10 -1.26389e-10 -2.65182e-09 -2.65133e-09 -2.65311e-09 -2.65182e-09 1.96732e-08 1.9669e-08 -2.65182e-09 -2.65133e-09 1.9669e-08 1.96628e-08 -2.73696e-12 -2.76673e-12 5.83534e-12 5.88555e-12 -2.76673e-12 -2.69183e-12 5.88555e-12 5.80853e-12 5.83534e-12 5.88555e-12 -1.95079e-11 -1.96526e-11 5.88555e-12 5.80853e-12 -1.96526e-11 -1.94372e-11 -2.69183e-12 -2.68956e-12 5.80853e-12 5.66782e-12 -2.68956e-12 -3.19674e-12 5.66782e-12 6.52357e-12 5.80853e-12 5.66782e-12 -1.94372e-11 -1.90335e-11 5.66782e-12 6.52357e-12 -1.90335e-11 -2.20103e-11 -1.95079e-11 -1.96526e-11 6.88832e-11 6.90657e-11 -1.96526e-11 -1.94372e-11 6.90657e-11 6.9278e-11 6.88832e-11 6.90657e-11 -1.74254e-10 -1.74667e-10 6.90657e-11 6.9278e-11 -1.74667e-10 -1.75593e-10 -1.94372e-11 -1.90335e-11 6.9278e-11 6.71073e-11 -1.90335e-11 -2.20103e-11 6.71073e-11 7.23109e-11 6.9278e-11 6.71073e-11 -1.75593e-10 -1.69103e-10 6.71073e-11 7.23109e-11 -1.69103e-10 -1.86528e-10 -3.19674e-12 -2.34352e-12 6.52357e-12 5.37199e-12 -2.34352e-12 -9.53165e-13 5.37199e-12 3.17133e-12 6.52357e-12 5.37199e-12 -2.20103e-11 -1.88752e-11 5.37199e-12 3.17133e-12 -1.88752e-11 -1.00471e-11 -9.53165e-13 -1.58965e-12 3.17133e-12 4.02553e-12 -1.58965e-12 -2.07766e-12 4.02553e-12 9.68146e-12 3.17133e-12 4.02553e-12 -1.00471e-11 -5.43441e-12 4.02553e-12 9.68146e-12 -5.43441e-12 -5.96055e-12 -2.20103e-11 -1.88752e-11 7.23109e-11 7.11878e-11 -1.88752e-11 -1.00471e-11 7.11878e-11 4.90181e-11 7.23109e-11 7.11878e-11 -1.86528e-10 -1.97506e-10 7.11878e-11 4.90181e-11 -1.97506e-10 -1.47455e-10 -1.00471e-11 -5.43441e-12 4.90181e-11 3.14504e-11 -5.43441e-12 -5.96055e-12 3.14504e-11 7.29458e-11 4.90181e-11 3.14504e-11 -1.47455e-10 3.51545e-11 3.14504e-11 7.29458e-11 3.51545e-11 1.63099e-10 -1.74254e-10 -1.74667e-10 4.16942e-10 4.15682e-10 -1.74667e-10 -1.75593e-10 4.15682e-10 4.24452e-10 4.16942e-10 4.15682e-10 -1.26389e-10 -1.23075e-10 4.15682e-10 4.24452e-10 -1.23075e-10 -1.38971e-10 -1.75593e-10 -1.69103e-10 4.24452e-10 4.04174e-10 -1.69103e-10 -1.86528e-10 4.04174e-10 3.90691e-10 4.24452e-10 4.04174e-10 -1.38971e-10 -1.09193e-10 4.04174e-10 3.90691e-10 -1.09193e-10 -5.35063e-11 -1.26389e-10 -1.23075e-10 -2.65133e-09 -2.66919e-09 -1.23075e-10 -1.38971e-10 -2.66919e-09 -2.61267e-09 -2.65133e-09 -2.66919e-09 1.96628e-08 1.9699e-08 -2.66919e-09 -2.61267e-09 1.9699e-08 1.96713e-08 -1.38971e-10 -1.09193e-10 -2.61267e-09 -2.62137e-09 -1.09193e-10 -5.35063e-11 -2.62137e-09 -3.18404e-09 -2.61267e-09 -2.62137e-09 1.96713e-08 1.94754e-08 -2.62137e-09 -3.18404e-09 1.94754e-08 2.01182e-08 -1.86528e-10 -1.97506e-10 3.90691e-10 5.2338e-10 -1.97506e-10 -1.47455e-10 5.2338e-10 4.90827e-10 3.90691e-10 5.2338e-10 -5.35063e-11 -6.31873e-10 5.2338e-10 4.90827e-10 -6.31873e-10 -6.82211e-10 -1.47455e-10 3.51545e-11 4.90827e-10 -6.74311e-11 3.51545e-11 1.63099e-10 -6.74311e-11 7.25809e-11 4.90827e-10 -6.74311e-11 -6.82211e-10 2.45009e-09 -6.74311e-11 7.25809e-11 2.45009e-09 4.84622e-09 -5.35063e-11 -6.31873e-10 -3.18404e-09 -1.76682e-09 -6.31873e-10 -6.82211e-10 -1.76682e-09 -8.79324e-10 -3.18404e-09 -1.76682e-09 2.01182e-08 1.78825e-08 -1.76682e-09 -8.79324e-10 1.78825e-08 1.9275e-08 -6.82211e-10 2.45009e-09 -8.79324e-10 -6.14322e-09 2.45009e-09 4.84622e-09 -6.14322e-09 -4.64838e-09 -8.79324e-10 -6.14322e-09 1.9275e-08 3.67068e-08 -6.14322e-09 -4.64838e-09 3.67068e-08 5.19501e-08 1.9671e-08 1.9671e-08 -9.59566e-08 -9.59567e-08 1.9671e-08 1.96709e-08 -9.59567e-08 -9.59565e-08 -9.59566e-08 -9.59567e-08 2.41305e-07 2.41305e-07 -9.59567e-08 -9.59565e-08 2.41305e-07 2.41305e-07 1.96709e-08 1.96711e-08 -9.59565e-08 -9.59568e-08 1.96711e-08 1.9671e-08 -9.59568e-08 -9.59571e-08 -9.59565e-08 -9.59568e-08 2.41305e-07 2.41304e-07 -9.59568e-08 -9.59571e-08 2.41304e-07 2.41309e-07 2.41305e-07 2.41305e-07 -5.67862e-07 -5.67862e-07 2.41305e-07 2.41305e-07 -5.67862e-07 -5.67863e-07 -5.67862e-07 -5.67862e-07 -3.24382e-07 -3.24383e-07 -5.67862e-07 -5.67863e-07 -3.24383e-07 -3.2438e-07 2.41305e-07 2.41304e-07 -5.67863e-07 -5.6786e-07 2.41304e-07 2.41309e-07 -5.6786e-07 -5.67865e-07 -5.67863e-07 -5.6786e-07 -3.2438e-07 -3.24387e-07 -5.6786e-07 -5.67865e-07 -3.24387e-07 -3.2438e-07 1.9671e-08 1.96703e-08 -9.59571e-08 -9.59535e-08 1.96703e-08 1.96732e-08 -9.59535e-08 -9.59657e-08 -9.59571e-08 -9.59535e-08 2