# vtk DataFile Version 3.0
#This file was generated by the deal.II library on 2022/11/2 at 18:45:35
ASCII
DATASET UNSTRUCTURED_GRID

POINTS 4096 double
0 0.5 0
0.03125 0.5 0
0 0.53125 0
0.03125 0.53125 0
0.03125 0.5 0
0.0625 0.5 0
0.03125 0.53125 0
0.0625 0.53125 0
0 0.53125 0
0.03125 0.53125 0
0 0.5625 0
0.03125 0.5625 0
0.03125 0.53125 0
0.0625 0.53125 0
0.03125 0.5625 0
0.0625 0.5625 0
0.0625 0.5 0
0.09375 0.5 0
0.0625 0.53125 0
0.09375 0.53125 0
0.09375 0.5 0
0.125 0.5 0
0.09375 0.53125 0
0.125 0.53125 0
0.0625 0.53125 0
0.09375 0.53125 0
0.0625 0.5625 0
0.09375 0.5625 0
0.09375 0.53125 0
0.125 0.53125 0
0.09375 0.5625 0
0.125 0.5625 0
0 0.5625 0
0.03125 0.5625 0
0 0.59375 0
0.03125 0.59375 0
0.03125 0.5625 0
0.0625 0.5625 0
0.03125 0.59375 0
0.0625 0.59375 0
0 0.59375 0
0.03125 0.59375 0
0 0.625 0
0.03125 0.625 0
0.03125 0.59375 0
0.0625 0.59375 0
0.03125 0.625 0
0.0625 0.625 0
0.0625 0.5625 0
0.09375 0.5625 0
0.0625 0.59375 0
0.09375 0.59375 0
0.09375 0.5625 0
0.125 0.5625 0
0.09375 0.59375 0
0.125 0.59375 0
0.0625 0.59375 0
0.09375 0.59375 0
0.0625 0.625 0
0.09375 0.625 0
0.09375 0.59375 0
0.125 0.59375 0
0.09375 0.625 0
0.125 0.625 0
0.125 0.5 0
0.15625 0.5 0
0.125 0.53125 0
0.15625 0.53125 0
0.15625 0.5 0
0.1875 0.5 0
0.15625 0.53125 0
0.1875 0.53125 0
0.125 0.53125 0
0.15625 0.53125 0
0.125 0.5625 0
0.15625 0.5625 0
0.15625 0.53125 0
0.1875 0.53125 0
0.15625 0.5625 0
0.1875 0.5625 0
0.1875 0.5 0
0.21875 0.5 0
0.1875 0.53125 0
0.21875 0.53125 0
0.21875 0.5 0
0.25 0.5 0
0.21875 0.53125 0
0.25 0.53125 0
0.1875 0.53125 0
0.21875 0.53125 0
0.1875 0.5625 0
0.21875 0.5625 0
0.21875 0.53125 0
0.25 0.53125 0
0.21875 0.5625 0
0.25 0.5625 0
0.125 0.5625 0
0.15625 0.5625 0
0.125 0.59375 0
0.15625 0.59375 0
0.15625 0.5625 0
0.1875 0.5625 0
0.15625 0.59375 0
0.1875 0.59375 0
0.125 0.59375 0
0.15625 0.59375 0
0.125 0.625 0
0.15625 0.625 0
0.15625 0.59375 0
0.1875 0.59375 0
0.15625 0.625 0
0.1875 0.625 0
0.1875 0.5625 0
0.21875 0.5625 0
0.1875 0.59375 0
0.21875 0.59375 0
0.21875 0.5625 0
0.25 0.5625 0
0.21875 0.59375 0
0.25 0.59375 0
0.1875 0.59375 0
0.21875 0.59375 0
0.1875 0.625 0
0.21875 0.625 0
0.21875 0.59375 0
0.25 0.59375 0
0.21875 0.625 0
0.25 0.625 0
0 0.625 0
0.03125 0.625 0
0 0.65625 0
0.03125 0.65625 0
0.03125 0.625 0
0.0625 0.625 0
0.03125 0.65625 0
0.0625 0.65625 0
0 0.65625 0
0.03125 0.65625 0
0 0.6875 0
0.03125 0.6875 0
0.03125 0.65625 0
0.0625 0.65625 0
0.03125 0.6875 0
0.0625 0.6875 0
0.0625 0.625 0
0.09375 0.625 0
0.0625 0.65625 0
0.09375 0.65625 0
0.09375 0.625 0
0.125 0.625 0
0.09375 0.65625 0
0.125 0.65625 0
0.0625 0.65625 0
0.09375 0.65625 0
0.0625 0.6875 0
0.09375 0.6875 0
0.09375 0.65625 0
0.125 0.65625 0
0.09375 0.6875 0
0.125 0.6875 0
0 0.6875 0
0.03125 0.6875 0
0 0.71875 0
0.03125 0.71875 0
0.03125 0.6875 0
0.0625 0.6875 0
0.03125 0.71875 0
0.0625 0.71875 0
0 0.71875 0
0.03125 0.71875 0
0 0.75 0
0.03125 0.75 0
0.03125 0.71875 0
0.0625 0.71875 0
0.03125 0.75 0
0.0625 0.75 0
0.0625 0.6875 0
0.09375 0.6875 0
0.0625 0.71875 0
0.09375 0.71875 0
0.09375 0.6875 0
0.125 0.6875 0
0.09375 0.71875 0
0.125 0.71875 0
0.0625 0.71875 0
0.09375 0.71875 0
0.0625 0.75 0
0.09375 0.75 0
0.09375 0.71875 0
0.125 0.71875 0
0.09375 0.75 0
0.125 0.75 0
0.125 0.625 0
0.15625 0.625 0
0.125 0.65625 0
0.15625 0.65625 0
0.15625 0.625 0
0.1875 0.625 0
0.15625 0.65625 0
0.1875 0.65625 0
0.125 0.65625 0
0.15625 0.65625 0
0.125 0.6875 0
0.15625 0.6875 0
0.15625 0.65625 0
0.1875 0.65625 0
0.15625 0.6875 0
0.1875 0.6875 0
0.1875 0.625 0
0.21875 0.625 0
0.1875 0.65625 0
0.21875 0.65625 0
0.21875 0.625 0
0.25 0.625 0
0.21875 0.65625 0
0.25 0.65625 0
0.1875 0.65625 0
0.21875 0.65625 0
0.1875 0.6875 0
0.21875 0.6875 0
0.21875 0.65625 0
0.25 0.65625 0
0.21875 0.6875 0
0.25 0.6875 0
0.125 0.6875 0
0.15625 0.6875 0
0.125 0.71875 0
0.15625 0.71875 0
0.15625 0.6875 0
0.1875 0.6875 0
0.15625 0.71875 0
0.1875 0.71875 0
0.125 0.71875 0
0.15625 0.71875 0
0.125 0.75 0
0.15625 0.75 0
0.15625 0.71875 0
0.1875 0.71875 0
0.15625 0.75 0
0.1875 0.75 0
0.1875 0.6875 0
0.21875 0.6875 0
0.1875 0.71875 0
0.21875 0.71875 0
0.21875 0.6875 0
0.25 0.6875 0
0.21875 0.71875 0
0.25 0.71875 0
0.1875 0.71875 0
0.21875 0.71875 0
0.1875 0.75 0
0.21875 0.75 0
0.21875 0.71875 0
0.25 0.71875 0
0.21875 0.75 0
0.25 0.75 0
0.25 0.5 0
0.28125 0.5 0
0.25 0.53125 0
0.28125 0.53125 0
0.28125 0.5 0
0.3125 0.5 0
0.28125 0.53125 0
0.3125 0.53125 0
0.25 0.53125 0
0.28125 0.53125 0
0.25 0.5625 0
0.28125 0.5625 0
0.28125 0.53125 0
0.3125 0.53125 0
0.28125 0.5625 0
0.3125 0.5625 0
0.3125 0.5 0
0.34375 0.5 0
0.3125 0.53125 0
0.34375 0.53125 0
0.34375 0.5 0
0.375 0.5 0
0.34375 0.53125 0
0.375 0.53125 0
0.3125 0.53125 0
0.34375 0.53125 0
0.3125 0.5625 0
0.34375 0.5625 0
0.34375 0.53125 0
0.375 0.53125 0
0.34375 0.5625 0
0.375 0.5625 0
0.25 0.5625 0
0.28125 0.5625 0
0.25 0.59375 0
0.28125 0.59375 0
0.28125 0.5625 0
0.3125 0.5625 0
0.28125 0.59375 0
0.3125 0.59375 0
0.25 0.59375 0
0.28125 0.59375 0
0.25 0.625 0
0.28125 0.625 0
0.28125 0.59375 0
0.3125 0.59375 0
0.28125 0.625 0
0.3125 0.625 0
0.3125 0.5625 0
0.34375 0.5625 0
0.3125 0.59375 0
0.34375 0.59375 0
0.34375 0.5625 0
0.375 0.5625 0
0.34375 0.59375 0
0.375 0.59375 0
0.3125 0.59375 0
0.34375 0.59375 0
0.3125 0.625 0
0.34375 0.625 0
0.34375 0.59375 0
0.375 0.59375 0
0.34375 0.625 0
0.375 0.625 0
0.375 0.5 0
0.40625 0.5 0
0.375 0.53125 0
0.40625 0.53125 0
0.40625 0.5 0
0.4375 0.5 0
0.40625 0.53125 0
0.4375 0.53125 0
0.375 0.53125 0
0.40625 0.53125 0
0.375 0.5625 0
0.40625 0.5625 0
0.40625 0.53125 0
0.4375 0.53125 0
0.40625 0.5625 0
0.4375 0.5625 0
0.4375 0.5 0
0.46875 0.5 0
0.4375 0.53125 0
0.46875 0.53125 0
0.46875 0.5 0
0.5 0.5 0
0.46875 0.53125 0
0.5 0.53125 0
0.4375 0.53125 0
0.46875 0.53125 0
0.4375 0.5625 0
0.46875 0.5625 0
0.46875 0.53125 0
0.5 0.53125 0
0.46875 0.5625 0
0.5 0.5625 0
0.375 0.5625 0
0.40625 0.5625 0
0.375 0.59375 0
0.40625 0.59375 0
0.40625 0.5625 0
0.4375 0.5625 0
0.40625 0.59375 0
0.4375 0.59375 0
0.375 0.59375 0
0.40625 0.59375 0
0.375 0.625 0
0.40625 0.625 0
0.40625 0.59375 0
0.4375 0.59375 0
0.40625 0.625 0
0.4375 0.625 0
0.4375 0.5625 0
0.46875 0.5625 0
0.4375 0.59375 0
0.46875 0.59375 0
0.46875 0.5625 0
0.5 0.5625 0
0.46875 0.59375 0
0.5 0.59375 0
0.4375 0.59375 0
0.46875 0.59375 0
0.4375 0.625 0
0.46875 0.625 0
0.46875 0.59375 0
0.5 0.59375 0
0.46875 0.625 0
0.5 0.625 0
0.25 0.625 0
0.28125 0.625 0
0.25 0.65625 0
0.28125 0.65625 0
0.28125 0.625 0
0.3125 0.625 0
0.28125 0.65625 0
0.3125 0.65625 0
0.25 0.65625 0
0.28125 0.65625 0
0.25 0.6875 0
0.28125 0.6875 0
0.28125 0.65625 0
0.3125 0.65625 0
0.28125 0.6875 0
0.3125 0.6875 0
0.3125 0.625 0
0.34375 0.625 0
0.3125 0.65625 0
0.34375 0.65625 0
0.34375 0.625 0
0.375 0.625 0
0.34375 0.65625 0
0.375 0.65625 0
0.3125 0.65625 0
0.34375 0.65625 0
0.3125 0.6875 0
0.34375 0.6875 0
0.34375 0.65625 0
0.375 0.65625 0
0.34375 0.6875 0
0.375 0.6875 0
0.25 0.6875 0
0.28125 0.6875 0
0.25 0.71875 0
0.28125 0.71875 0
0.28125 0.6875 0
0.3125 0.6875 0
0.28125 0.71875 0
0.3125 0.71875 0
0.25 0.71875 0
0.28125 0.71875 0
0.25 0.75 0
0.28125 0.75 0
0.28125 0.71875 0
0.3125 0.71875 0
0.28125 0.75 0
0.3125 0.75 0
0.3125 0.6875 0
0.34375 0.6875 0
0.3125 0.71875 0
0.34375 0.71875 0
0.34375 0.6875 0
0.375 0.6875 0
0.34375 0.71875 0
0.375 0.71875 0
0.3125 0.71875 0
0.34375 0.71875 0
0.3125 0.75 0
0.34375 0.75 0
0.34375 0.71875 0
0.375 0.71875 0
0.34375 0.75 0
0.375 0.75 0
0.375 0.625 0
0.40625 0.625 0
0.375 0.65625 0
0.40625 0.65625 0
0.40625 0.625 0
0.4375 0.625 0
0.40625 0.65625 0
0.4375 0.65625 0
0.375 0.65625 0
0.40625 0.65625 0
0.375 0.6875 0
0.40625 0.6875 0
0.40625 0.65625 0
0.4375 0.65625 0
0.40625 0.6875 0
0.4375 0.6875 0
0.4375 0.625 0
0.46875 0.625 0
0.4375 0.65625 0
0.46875 0.65625 0
0.46875 0.625 0
0.5 0.625 0
0.46875 0.65625 0
0.5 0.65625 0
0.4375 0.65625 0
0.46875 0.65625 0
0.4375 0.6875 0
0.46875 0.6875 0
0.46875 0.65625 0
0.5 0.65625 0
0.46875 0.6875 0
0.5 0.6875 0
0.375 0.6875 0
0.40625 0.6875 0
0.375 0.71875 0
0.40625 0.71875 0
0.40625 0.6875 0
0.4375 0.6875 0
0.40625 0.71875 0
0.4375 0.71875 0
0.375 0.71875 0
0.40625 0.71875 0
0.375 0.75 0
0.40625 0.75 0
0.40625 0.71875 0
0.4375 0.71875 0
0.40625 0.75 0
0.4375 0.75 0
0.4375 0.6875 0
0.46875 0.6875 0
0.4375 0.71875 0
0.46875 0.71875 0
0.46875 0.6875 0
0.5 0.6875 0
0.46875 0.71875 0
0.5 0.71875 0
0.4375 0.71875 0
0.46875 0.71875 0
0.4375 0.75 0
0.46875 0.75 0
0.46875 0.71875 0
0.5 0.71875 0
0.46875 0.75 0
0.5 0.75 0
0 0.75 0
0.03125 0.75 0
0 0.78125 0
0.03125 0.78125 0
0.03125 0.75 0
0.0625 0.75 0
0.03125 0.78125 0
0.0625 0.78125 0
0 0.78125 0
0.03125 0.78125 0
0 0.8125 0
0.03125 0.8125 0
0.03125 0.78125 0
0.0625 0.78125 0
0.03125 0.8125 0
0.0625 0.8125 0
0.0625 0.75 0
0.09375 0.75 0
0.0625 0.78125 0
0.09375 0.78125 0
0.09375 0.75 0
0.125 0.75 0
0.09375 0.78125 0
0.125 0.78125 0
0.0625 0.78125 0
0.09375 0.78125 0
0.0625 0.8125 0
0.09375 0.8125 0
0.09375 0.78125 0
0.125 0.78125 0
0.09375 0.8125 0
0.125 0.8125 0
0 0.8125 0
0.03125 0.8125 0
0 0.84375 0
0.03125 0.84375 0
0.03125 0.8125 0
0.0625 0.8125 0
0.03125 0.84375 0
0.0625 0.84375 0
0 0.84375 0
0.03125 0.84375 0
0 0.875 0
0.03125 0.875 0
0.03125 0.84375 0
0.0625 0.84375 0
0.03125 0.875 0
0.0625 0.875 0
0.0625 0.8125 0
0.09375 0.8125 0
0.0625 0.84375 0
0.09375 0.84375 0
0.09375 0.8125 0
0.125 0.8125 0
0.09375 0.84375 0
0.125 0.84375 0
0.0625 0.84375 0
0.09375 0.84375 0
0.0625 0.875 0
0.09375 0.875 0
0.09375 0.84375 0
0.125 0.84375 0
0.09375 0.875 0
0.125 0.875 0
0.125 0.75 0
0.15625 0.75 0
0.125 0.78125 0
0.15625 0.78125 0
0.15625 0.75 0
0.1875 0.75 0
0.15625 0.78125 0
0.1875 0.78125 0
0.125 0.78125 0
0.15625 0.78125 0
0.125 0.8125 0
0.15625 0.8125 0
0.15625 0.78125 0
0.1875 0.78125 0
0.15625 0.8125 0
0.1875 0.8125 0
0.1875 0.75 0
0.21875 0.75 0
0.1875 0.78125 0
0.21875 0.78125 0
0.21875 0.75 0
0.25 0.75 0
0.21875 0.78125 0
0.25 0.78125 0
0.1875 0.78125 0
0.21875 0.78125 0
0.1875 0.8125 0
0.21875 0.8125 0
0.21875 0.78125 0
0.25 0.78125 0
0.21875 0.8125 0
0.25 0.8125 0
0.125 0.8125 0
0.15625 0.8125 0
0.125 0.84375 0
0.15625 0.84375 0
0.15625 0.8125 0
[...]
POINT_DATA 4096
SCALARS x_dis double 1
LOOKUP_TABLE default
-9.32644e-13 -7.81121e-13 -1.1091e-12 7.51282e-13 -7.81121e-13 -1.02591e-12 7.51282e-13 3.24606e-12 -1.1091e-12 7.51282e-13 -3.88261e-12 -1.21809e-12 7.51282e-13 3.24606e-12 -1.21809e-12 -8.56123e-12 -1.02591e-12 -1.03421e-12 3.24606e-12 3.59263e-12 -1.03421e-12 -1.19725e-12 3.59263e-12 4.05935e-12 3.24606e-12 3.59263e-12 -8.56123e-12 -1.01042e-11 3.59263e-12 4.05935e-12 -1.01042e-11 -1.09108e-11 -3.88261e-12 -1.21809e-12 -4.41261e-11 -2.05307e-11 -1.21809e-12 -8.56123e-12 -2.05307e-11 1.70594e-11 -4.41261e-11 -2.05307e-11 3.1691e-11 7.42849e-11 -2.05307e-11 1.70594e-11 7.42849e-11 -1.01367e-11 -8.56123e-12 -1.01042e-11 1.70594e-11 2.53527e-11 -1.01042e-11 -1.09108e-11 2.53527e-11 2.6705e-11 1.70594e-11 2.53527e-11 -1.01367e-11 -3.25096e-11 2.53527e-11 2.6705e-11 -3.25096e-11 -2.24881e-11 -1.19725e-12 -1.1116e-12 4.05935e-12 3.7296e-12 -1.1116e-12 -1.09906e-12 3.7296e-12 3.68398e-12 4.05935e-12 3.7296e-12 -1.09108e-11 -9.8436e-12 3.7296e-12 3.68398e-12 -9.8436e-12 -9.89996e-12 -1.09906e-12 -1.11875e-12 3.68398e-12 3.74262e-12 -1.11875e-12 -1.11299e-12 3.74262e-12 3.72539e-12 3.68398e-12 3.74262e-12 -9.89996e-12 -1.00534e-11 3.74262e-12 3.72539e-12 -1.00534e-11 -9.9848e-12 -1.09108e-11 -9.8436e-12 2.6705e-11 2.39007e-11 -9.8436e-12 -9.89996e-12 2.39007e-11 2.41631e-11 2.6705e-11 2.39007e-11 -2.24881e-11 -1.70133e-11 2.39007e-11 2.41631e-11 -1.70133e-11 -1.93738e-11 -9.89996e-12 -1.00534e-11 2.41631e-11 2.43154e-11 -1.00534e-11 -9.9848e-12 2.43154e-11 2.42379e-11 2.41631e-11 2.43154e-11 -1.93738e-11 -1.92844e-11 2.43154e-11 2.42379e-11 -1.92844e-11 -1.90798e-11 3.1691e-11 7.42849e-11 -7.70312e-10 -4.7868e-10 7.42849e-11 -1.01367e-11 -4.7868e-10 -1.42273e-10 -7.70312e-10 -4.7868e-10 7.96134e-10 1.09259e-09 -4.7868e-10 -1.42273e-10 1.09259e-09 8.34185e-10 -1.01367e-11 -3.25096e-11 -1.42273e-10 -5.355e-11 -3.25096e-11 -2.24881e-11 -5.355e-11 -1.01884e-10 -1.42273e-10 -5.355e-11 8.34185e-10 9.08591e-10 -5.355e-11 -1.01884e-10 9.08591e-10 1.19485e-09 7.96134e-10 1.09259e-09 -9.60945e-09 -5.71555e-09 1.09259e-09 8.34185e-10 -5.71555e-09 -4.78248e-09 -9.60945e-09 -5.71555e-09 4.01156e-09 6.81089e-09 -5.71555e-09 -4.78248e-09 6.81089e-09 1.52011e-08 8.34185e-10 9.08591e-10 -4.78248e-09 -4.71067e-09 9.08591e-10 1.19485e-09 -4.71067e-09 -5.57727e-09 -4.78248e-09 -4.71067e-09 1.52011e-08 1.87819e-08 -4.71067e-09 -5.57727e-09 1.87819e-08 2.09794e-08 -2.24881e-11 -1.70133e-11 -1.01884e-10 -1.05633e-10 -1.70133e-11 -1.93738e-11 -1.05633e-10 -1.01159e-10 -1.01884e-10 -1.05633e-10 1.19485e-09 1.16888e-09 -1.05633e-10 -1.01159e-10 1.16888e-09 1.14177e-09 -1.93738e-11 -1.92844e-11 -1.01159e-10 -1.03526e-10 -1.92844e-11 -1.90798e-11 -1.03526e-10 -1.02934e-10 -1.01159e-10 -1.03526e-10 1.14177e-09 1.15219e-09 -1.03526e-10 -1.02934e-10 1.15219e-09 1.1504e-09 1.19485e-09 1.16888e-09 -5.57727e-09 -5.43739e-09 1.16888e-09 1.14177e-09 -5.43739e-09 -5.41108e-09 -5.57727e-09 -5.43739e-09 2.09794e-08 2.03283e-08 -5.43739e-09 -5.41108e-09 2.03283e-08 2.018e-08 1.14177e-09 1.15219e-09 -5.41108e-09 -5.43465e-09 1.15219e-09 1.1504e-09 -5.43465e-09 -5.42768e-09 -5.41108e-09 -5.43465e-09 2.018e-08 2.02371e-08 -5.43465e-09 -5.42768e-09 2.02371e-08 2.02222e-08 -1.11299e-12 -1.11283e-12 3.72539e-12 3.72611e-12 -1.11283e-12 -1.1136e-12 3.72611e-12 3.72726e-12 3.72539e-12 3.72611e-12 -9.9848e-12 -9.99707e-12 3.72611e-12 3.72726e-12 -9.99707e-12 -9.99794e-12 -1.1136e-12 -1.11324e-12 3.72726e-12 3.72655e-12 -1.11324e-12 -1.1133e-12 3.72655e-12 3.72757e-12 3.72726e-12 3.72655e-12 -9.99794e-12 -9.99662e-12 3.72655e-12 3.72757e-12 -9.99662e-12 -9.99726e-12 -9.9848e-12 -9.99707e-12 2.42379e-11 2.42587e-11 -9.99707e-12 -9.99794e-12 2.42587e-11 2.42524e-11 2.42379e-11 2.42587e-11 -1.90798e-11 -1.91556e-11 2.42587e-11 2.42524e-11 -1.91556e-11 -1.9142e-11 -9.99794e-12 -9.99662e-12 2.42524e-11 2.42554e-11 -9.99662e-12 -9.99726e-12 2.42554e-11 2.42542e-11 2.42524e-11 2.42554e-11 -1.9142e-11 -1.91466e-11 2.42554e-11 2.42542e-11 -1.91466e-11 -1.91428e-11 -1.1133e-12 -1.11353e-12 3.72757e-12 3.72455e-12 -1.11353e-12 -1.11405e-12 3.72455e-12 3.73406e-12 3.72757e-12 3.72455e-12 -9.99726e-12 -9.99658e-12 3.72455e-12 3.73406e-12 -9.99658e-12 -1.00004e-11 -1.11405e-12 -1.12824e-12 3.73406e-12 3.68263e-12 -1.12824e-12 -1.16549e-12 3.68263e-12 3.76195e-12 3.73406e-12 3.68263e-12 -1.00004e-11 -9.9924e-12 3.68263e-12 3.76195e-12 -9.9924e-12 -1.00208e-11 -9.99726e-12 -9.99658e-12 2.42542e-11 2.42541e-11 -9.99658e-12 -1.00004e-11 2.42541e-11 2.42553e-11 2.42542e-11 2.42541e-11 -1.91428e-11 -1.91448e-11 2.42541e-11 2.42553e-11 -1.91448e-11 -1.91445e-11 -1.00004e-11 -9.9924e-12 2.42553e-11 2.42511e-11 -9.9924e-12 -1.00208e-11 2.42511e-11 2.42568e-11 2.42553e-11 2.42511e-11 -1.91445e-11 -1.91436e-11 2.42511e-11 2.42568e-11 -1.91436e-11 -1.91448e-11 -1.90798e-11 -1.91556e-11 -1.02934e-10 -1.03085e-10 -1.91556e-11 -1.9142e-11 -1.03085e-10 -1.03049e-10 -1.02934e-10 -1.03085e-10 1.1504e-09 1.151e-09 -1.03085e-10 -1.03049e-10 1.151e-09 1.15065e-09 -1.9142e-11 -1.91466e-11 -1.03049e-10 -1.03049e-10 -1.91466e-11 -1.91428e-11 -1.03049e-10 -1.03059e-10 -1.03049e-10 -1.03049e-10 1.15065e-09 1.15076e-09 -1.03049e-10 -1.03059e-10 1.15076e-09 1.15076e-09 1.1504e-09 1.151e-09 -5.42768e-09 -5.43081e-09 1.151e-09 1.15065e-09 -5.43081e-09 -5.4292e-09 -5.42768e-09 -5.43081e-09 2.02222e-08 2.02273e-08 -5.43081e-09 -5.4292e-09 2.02273e-08 2.02242e-08 1.15065e-09 1.15076e-09 -5.4292e-09 -5.42983e-09 1.15076e-09 1.15076e-09 -5.42983e-09 -5.42969e-09 -5.4292e-09 -5.42983e-09 2.02242e-08 2.02256e-08 -5.42983e-09 -5.42969e-09 2.02256e-08 2.02252e-08 -1.91428e-11 -1.91448e-11 -1.03059e-10 -1.03051e-10 -1.91448e-11 -1.91445e-11 -1.03051e-10 -1.03055e-10 -1.03059e-10 -1.03051e-10 1.15076e-09 1.15074e-09 -1.03051e-10 -1.03055e-10 1.15074e-09 1.15076e-09 -1.91445e-11 -1.91436e-11 -1.03055e-10 -1.03054e-10 -1.91436e-11 -1.91448e-11 -1.03054e-10 -1.03054e-10 -1.03055e-10 -1.03054e-10 1.15076e-09 1.15075e-09 -1.03054e-10 -1.03054e-10 1.15075e-09 1.15075e-09 1.15076e-09 1.15074e-09 -5.42969e-09 -5.42968e-09 1.15074e-09 1.15076e-09 -5.42968e-09 -5.4297e-09 -5.42969e-09 -5.42968e-09 2.02252e-08 2.02252e-08 -5.42968e-09 -5.4297e-09 2.02252e-08 2.02253e-08 1.15076e-09 1.15075e-09 -5.4297e-09 -5.42969e-09 1.15075e-09 1.15075e-09 -5.42969e-09 -5.42969e-09 -5.4297e-09 -5.42969e-09 2.02253e-08 2.02252e-08 -5.42969e-09 -5.42969e-09 2.02252e-08 2.02252e-08 4.01156e-09 6.81089e-09 -8.37728e-08 -4.43888e-08 6.81089e-09 1.52011e-08 -4.43888e-08 -6.36015e-08 -8.37728e-08 -4.43888e-08 -2.11225e-07 -6.6358e-08 -4.43888e-08 -6.36015e-08 -6.6358e-08 1.02916e-07 1.52011e-08 1.87819e-08 -6.36015e-08 -6.84283e-08 1.87819e-08 2.09794e-08 -6.84283e-08 -6.8854e-08 -6.36015e-08 -6.84283e-08 1.02916e-07 1.34261e-07 -6.84283e-08 -6.8854e-08 1.34261e-07 1.24293e-07 -2.11225e-07 -6.6358e-08 -5.23969e-08 1.52739e-07 -6.6358e-08 1.02916e-07 1.52739e-07 -1.04115e-07 -5.23969e-08 1.52739e-07 -5.352e-06 -3.59067e-06 1.52739e-07 -1.04115e-07 -3.59067e-06 -2.11343e-06 1.02916e-07 1.34261e-07 -1.04115e-07 -1.49076e-07 1.34261e-07 1.24293e-07 -1.49076e-07 -9.90548e-08 -1.04115e-07 -1.49076e-07 -2.11343e-06 -1.19653e-06 -1.49076e-07 -9.90548e-08 -1.19653e-06 -1.09239e-06 2.09794e-08 2.03283e-08 -6.8854e-08 -6.86766e-08 2.03283e-08 2.018e-08 -6.86766e-08 -6.85482e-08 -6.8854e-08 -6.86766e-08 1.24293e-07 1.19456e-07 -6.86766e-08 -6.85482e-08 1.19456e-07 1.19361e-07 2.018e-08 2.02371e-08 -6.85482e-08 -6.85861e-08 2.02371e-08 2.02222e-08 -6.85861e-08 -6.85977e-08 -6.85482e-08 -6.85861e-08 1.19361e-07 1.19665e-07 -6.85861e-08 -6.85977e-08 1.19665e-07 1.1962e-07 1.24293e-07 1.19456e-07 -9.90548e-08 -1.11074e-07 1.19456e-07 1.19361e-07 -1.11074e-07 -1.11425e-07 -9.90548e-08 -1.11074e-07 -1.09239e-06 -1.10901e-06 -1.11074e-07 -1.11425e-07 -1.10901e-06 -1.14743e-06 1.19361e-07 1.19665e-07 -1.11425e-07 -1.10529e-07 1.19665e-07 1.1962e-07 -1.10529e-07 -1.11126e-07 -1.11425e-07 -1.10529e-07 -1.14743e-06 -1.14029e-06 -1.10529e-07 -1.11126e-07 -1.14029e-06 -1.1374e-06 -5.352e-06 -3.59067e-06 -5.19037e-06 -1.13497e-06 -3.59067e-06 -2.11343e-06 -1.13497e-06 4.53348e-06 -5.19037e-06 -1.13497e-06 -3.02724e-05 2.67732e-06 -1.13497e-06 4.53348e-06 2.67732e-06 1.61019e-06 -2.11343e-06 -1.19653e-06 4.53348e-06 6.30439e-06 -1.19653e-06 -1.09239e-06 6.30439e-06 6.47676e-06 4.53348e-06 6.30439e-06 1.61019e-06 2.98127e-06 6.30439e-06 6.47676e-06 2.98127e-06 3.10802e-06 -3.02724e-05 2.67732e-06 -0.000121583 -5.77022e-05 2.67732e-06 1.61019e-06 -5.77022e-05 -4.2698e-05 -0.000121583 -5.77022e-05 -0.00024 -0.00024 -5.77022e-05 -4.2698e-05 -0.00024 -0.00024 1.61019e-06 2.98127e-06 -4.2698e-05 -4.18095e-05 2.98127e-06 3.10802e-06 -4.18095e-05 -4.21212e-05 -4.2698e-05 -4.18095e-05 -0.00024 -0.00024 -4.18095e-05 -4.21212e-05 -0.00024 -0.00024 -1.09239e-06 -1.10901e-06 6.47676e-06 6.35543e-06 -1.10901e-06 -1.14743e-06 6.35543e-06 6.29357e-06 6.47676e-06 6.35543e-06 3.10802e-06 2.85169e-06 6.35543e-06 6.29357e-06 2.85169e-06 2.86693e-06 -1.14743e-06 -1.14029e-06 6.29357e-06 6.31993e-06 -1.14029e-06 -1.1374e-06 6.31993e-06 6.31841e-06 6.29357e-06 6.31993e-06 2.86693e-06 2.89167e-06 6.31993e-06 6.31841e-06 2.89167e-06 2.87907e-06 3.10802e-06 2.85169e-06 -4.21212e-05 -4.22368e-05 2.85169e-06 2.86693e-06 -4.22368e-05 -4.22599e-05 -4.21212e-05 -4.22368e-05 -0.00024 -0.00024 -4.22368e-05 -4.22599e-05 -0.00024 -0.00024 2.86693e-06 2.89167e-06 -4.22599e-05 -4.22429e-05 2.89167e-06 2.87907e-06 -4.22429e-05 -4.22449e-05 -4.22599e-05 -4.22429e-05 -0.00024 -0.00024 -4.22429e-05 -4.22449e-05 -0.00024 -0.00024 2.02222e-08 2.02273e-08 -6.85977e-08 -6.8592e-08 2.02273e-08 2.02242e-08 -6.8592e-08 -6.85909e-08 -6.85977e-08 -6.8592e-08 1.1962e-07 1.19583e-07 -6.8592e-08 -6.85909e-08 1.19583e-07 1.19604e-07 2.02242e-08 2.02256e-08 -6.85909e-08 -6.85932e-08 2.02256e-08 2.02252e-08 -6.85932e-08 -6.85918e-08 -6.85909e-08 -6.85932e-08 1.19604e-07 1.196e-07 -6.85932e-08 -6.85918e-08 1.196e-07 1.19599e-07 1.1962e-07 1.19583e-07 -1.11126e-07 -1.10834e-07 1.19583e-07 1.19604e-07 -1.10834e-07 -1.10931e-07 -1.11126e-07 -1.10834e-07 -1.1374e-06 -1.1395e-06 -1.10834e-07 -1.10931e-07 -1.1395e-06 -1.13891e-06 1.19604e-07 1.196e-07 -1.10931e-07 -1.10916e-07 1.196e-07 1.19599e-07 -1.10916e-07 -1.10911e-07 -1.10931e-07 -1.10916e-07 -1.13891e-06 -1.13895e-06 -1.10916e-07 -1.10911e-07 -1.13895e-06 -1.13899e-06 2.02252e-08 2.02252e-08 -6.85918e-08 -6.85924e-08 2.02252e-08 2.02253e-08 -6.85924e-08 -6.85922e-08 -6.85918e-08 -6.85924e-08 1.19599e-07 1.19601e-07 -6.85924e-08 -6.85922e-08 1.19601e-07 1.196e-07 2.02253e-08 2.02252e-08 -6.85922e-08 -6.85922e-08 2.02252e-08 2.02252e-08 -6.85922e-08 -6.85922e-08 -6.85922e-08 -6.85922e-08 1.196e-07 1.196e-07 -6.85922e-08 -6.85922e-08 1.196e-07 1.196e-07 1.19599e-07 1.19601e-07 -1.10911e-07 -1.10916e-07 1.19601e-07 1.196e-07 -1.10916e-07 -1.10914e-07 -1.10911e-07 -1.10916e-07 -1.13899e-06 -1.13897e-06 -1.10916e-07 -1.10914e-07 -1.13897e-06 -1.13898e-06 1.196e-07 1.196e-07 -1.10914e-07 -1.10915e-07 1.196e-07 1.196e-07 -1.10915e-07 -1.10915e-07 -1.10914e-07 -1.10915e-07 -1.13898e-06 -1.13897e-06 -1.10915e-07 -1.10915e-07 -1.13897e-06 -1.13897e-06 -1.1374e-06 -1.1395e-06 6.31841e-06 6.31561e-06 -1.1395e-06 -1.13891e-06 6.31561e-06 6.31711e-06 6.31841e-06 6.31561e-06 2.87907e-06 2.88201e-06 6.31561e-06 6.31711e-06 2.88201e-06 2.88195e-06 -1.13891e-06 -1.13895e-06 6.31711e-06 6.3167e-06 -1.13895e-06 -1.13899e-06 6.3167e-06 6.31674e-06 6.31711e-06 6.3167e-06 2.88195e-06 2.88169e-06 6.3167e-06 6.31674e-06 2.88169e-06 2.88182e-06 2.87907e-06 2.88201e-06 -4.22449e-05 -4.22461e-05 2.88201e-06 2.88195e-06 -4.22461e-05 -4.22454e-05 -4.22449e-05 -4.22461e-05 -0.00024 -0.00024 -4.22461e-05 -4.22454e-05 -0.00024 -0.00024 2.88195e-06 2.88169e-06 -4.22454e-05 -4.22456e-05 2.88169e-06 2.88182e-06 -4.22456e-05 -4.22456e-05 -4.22454e-05 -4.22456e-05 -0.00024 -0.00024 -4.22456e-05 -4.22456e-05 -0.00024 -0.00024 -1.13899e-06 -1.13897e-06 6.31674e-06 6.31676e-06 -1.13897e-06 -1.13898e-06 6.31676e-06 6.31675e-06 6.31674e-06 6.31676e-06 2.88182e-06 2.88178e-06 6.31676e-06 6.31675e-06 2.88178e-06 2.88179e-06 -1.13898e-06 -1.13897e-06 6.31675e-06 6.31675e-06 -1.13897e-06 -1.13897e-06 6.31675e-06 6.31675e-06 6.31675e-06 6.31675e-06 2.88179e-06 2.88179e-06 6.31675e-06 6.31675e-06 2.88179e-06 2.88179e-06 2.88182e-06 2.88178e-06 -4.22456e-05 -4.22456e-05 2.88178e-06 2.88179e-06 -4.22456e-05 -4.22456e-05 -4.22456e-05 -4.22456e-05 -0.00024 -0.00024 -4.22456e-05 -4.22456e-05 -0.00024 -0.00024 2.88179e-06 2.88179e-06 -4.22456e-05 -4.22456e-05 2.88179e-06 2.88179e-06 -4.22456e-05 -4.22456e-05 -4.22456e-05 -4.22456e-05 -0.00024 -0.00024 -4.22456e-05 -4.22456e-05 -0.00024 -0.00024 -1.16549e-12 -2.43937e-12 3.76195e-12 4.1063e-12 -2.43937e-12 -2.14984e-12 4.1063e-12 4.02197e-12 3.76195e-12 4.1063e-12 -1.00208e-11 -1.01006e-11 4.1063e-12 4.02197e-12 -1.01006e-11 -1.00816e-11 -2.14984e-12 -2.18779e-12 4.02197e-12 4.02583e-12 -2.18779e-12 -2.1978e-12 4.02583e-12 4.02784e-12 4.02197e-12 4.02583e-12 -1.00816e-11 -1.00809e-11 4.02583e-12 4.02784e-12 -1.00809e-11 -1.00808e-11 -1.00208e-11 -1.01006e-11 2.42568e-11 2.42757e-11 -1.01006e-11 -1.00816e-11 2.42757e-11 2.42753e-11 2.42568e-11 2.42757e-11 -1.91448e-11 -1.91498e-11 2.42757e-11 2.42753e-11 -1.91498e-11 -1.91503e-11 -1.00816e-11 -1.00809e-11 2.42753e-11 2.42759e-11 -1.00809e-11 -1.00808e-11 2.42759e-11 2.42756e-11 2.42753e-11 2.42759e-11 -1.91503e-11 -1.91497e-11 2.42759e-11 2.42756e-11 -1.91497e-11 -1.91505e-11 -2.1978e-12 -2.19229e-12 4.02784e-12 4.0268e-12 -2.19229e-12 -2.19428e-12 4.0268e-12 4.02666e-12 4.02784e-12 4.0268e-12 -1.00808e-11 -1.00813e-11 4.0268e-12 4.02666e-12 -1.00813e-11 -1.00802e-11 -2.19428e-12 -2.1945e-12 4.02666e-12 4.02872e-12 -2.1945e-12 -2.18978e-12 4.02872e-12 4.02117e-12 4.02666e-12 4.02872e-12 -1.00802e-11 -1.00855e-11 4.02872e-12 4.02117e-12 -1.00855e-11 -1.00688e-11 -1.00808e-11 -1.00813e-11 2.42756e-11 2.42757e-11 -1.00813e-11 -1.00802e-11 2.42757e-11 2.42737e-11 2.42756e-11 2.42757e-11 -1.91505e-11 -1.91487e-11 2.42757e-11 2.42737e-11 -1.91487e-11 -1.91485e-11 -1.00802e-11 -1.00855e-11 2.42737e-11 2.42833e-11 -1.00855e-11 -1.00688e-11 2.42833e-11 2.4272e-11 2.42737e-11 2.42833e-11 -1.91485e-11 -1.91569e-11 2.42833e-11 2.4272e-11 -1.91569e-11 -1.91724e-11 -1.91448e-11 -1.91498e-11 -1.03054e-10 -1.03053e-10 -1.91498e-11 -1.91503e-11 -1.03053e-10 -1.03052e-10 -1.03054e-10 -1.03053e-10 1.15075e-09 1.15075e-09 -1.03053e-10 -1.03052e-10 1.15075e-09 1.15075e-09 -1.91503e-11 -1.91497e-11 -1.03052e-10 -1.03055e-10 -1.91497e-11 -1.91505e-11 -1.03055e-10 -1.03048e-10 -1.03052e-10 -1.03055e-10 1.15075e-09 1.15075e-09 -1.03055e-10 -1.03048e-10 1.15075e-09 1.15075e-09 1.15075e-09 1.15075e-09 -5.42969e-09 -5.4297e-09 1.15075e-09 1.15075e-09 -5.4297e-09 -5.42968e-09 -5.42969e-09 -5.4297e-09 2.02252e-08 2.02253e-08 -5.4297e-09 -5.42968e-09 2.02253e-08 2.02252e-08 1.15075e-09 1.15075e-09 -5.42968e-09 -5.42971e-09 1.15075e-09 1.15075e-09 -5.42971e-09 -5.4297e-09 -5.42968e-09 -5.42971e-09 2.02252e-08 2.02252e-08 -5.42971e-09 -5.4297e-09 2.02252e-08 2.02255e-08 -1.91505e-11 -1.91487e-11 -1.03048e-10 -1.03057e-10 -1.91487e-11 -1.91485e-11 -1.03057e-10 -1.03058e-10 -1.03048e-10 -1.03057e-10 1.15075e-09 1.15074e-09 -1.03057e-10 -1.03058e-10 1.15074e-09 1.15077e-09 -1.91485e-11 -1.91569e-11 -1.03058e-10 -1.03057e-10 -1.91569e-11 -1.91724e-11 -1.03057e-10 -1.02821e-10 -1.03058e-10 -1.03057e-10 1.15077e-09 1.15082e-09 -1.03057e-10 -1.02821e-10 1.15082e-09 1.15022e-09 1.15075e-09 1.15074e-09 -5.4297e-09 -5.42958e-09 1.15074e-09 1.15077e-09 -5.42958e-09 -5.42998e-09 -5.4297e-09 -5.42958e-09 2.02255e-08 2.02246e-08 -5.42958e-09 -5.42998e-09 2.02246e-08 2.02263e-08 1.15077e-09 1.15082e-09 -5.42998e-09 -5.42971e-09 1.15082e-09 1.15022e-09 -5.42971e-09 -5.42733e-09 -5.42998e-09 -5.42971e-09 2.02263e-08 2.02259e-08 -5.42971e-09 -5.42733e-09 2.02259e-08 2.02183e-08 -2.18978e-12 -2.20517e-12 4.02117e-12 4.03563e-12 -2.20517e-12 -2.18548e-12 4.03563e-12 4.04131e-12 4.02117e-12 4.03563e-12 -1.00688e-11 -1.00932e-11 4.03563e-12 4.04131e-12 -1.00932e-11 -1.01419e-11 -2.18548e-12 -2.13352e-12 4.04131e-12 3.91415e-12 -2.13352e-12 -2.4159e-12 3.91415e-12 4.2303e-12 4.04131e-12 3.91415e-12 -1.01419e-11 -9.79671e-12 3.91415e-12 4.2303e-12 -9.79671e-12 -1.06341e-11 -1.00688e-11 -1.00932e-11 2.4272e-11 2.41927e-11 -1.00932e-11 -1.01419e-11 2.41927e-11 2.4645e-11 2.4272e-11 2.41927e-11 -1.91724e-11 -1.891e-11 2.41927e-11 2.4645e-11 -1.891e-11 -1.99731e-11 -1.01419e-11 -9.79671e-12 2.4645e-11 2.37551e-11 -9.79671e-12 -1.06341e-11 2.37551e-11 2.30044e-11 2.4645e-11 2.37551e-11 -1.99731e-11 -1.87235e-11 2.37551e-11 2.30044e-11 -1.87235e-11 -1.46006e-11 -2.4159e-12 -2.23758e-12 4.2303e-12 4.2539e-12 -2.23758e-12 -1.2792e-12 4.2539e-12 2.95086e-12 4.2303e-12 4.2539e-12 -1.06341e-11 -1.14646e-11 4.2539e-12 2.95086e-12 -1.14646e-11 -8.75402e-12 -1.2792e-12 -6.06867e-13 2.95086e-12 1.59463e-12 -6.06867e-13 -5.82971e-13 1.59463e-12 3.60469e-12 2.95086e-12 1.59463e-12 -8.75402e-12 9.82214e-13 1.59463e-12 3.60469e-12 9.82214e-13 8.07937e-12 -1.06341e-11 -1.14646e-11 2.30044e-11 3.0233e-11 -1.14646e-11 -8.75402e-12 3.0233e-11 2.84653e-11 2.30044e-11 3.0233e-11 -1.46006e-11 -4.41502e-11 3.0233e-11 2.84653e-11 -4.41502e-11 -5.85351e-11 -8.75402e-12 9.82214e-13 2.84653e-11 -3.22724e-12 9.82214e-13 8.07937e-12 -3.22724e-12 2.21332e-12 2.84653e-11 -3.22724e-12 -5.85351e-11 1.091e-10 -3.22724e-12 2.21332e-12 1.091e-10 2.50693e-10 -1.91724e-11 -1.891e-11 -1.02821e-10 -1.04251e-10 -1.891e-11 -1.99731e-11 -1.04251e-10 -1.00487e-10 -1.02821e-10 -1.04251e-10 1.15022e-09 1.15217e-09 -1.04251e-10 -1.00487e-10 1.15217e-09 1.15009e-09 -1.99731e-11 -1.87235e-11 -1.00487e-10 -1.00338e-10 -1.87235e-11 -1.46006e-11 -1.00338e-10 -1.40273e-10 -1.00487e-10 -1.00338e-10 1.15009e-09 1.1358e-09 -1.00338e-10 -1.40273e-10 1.1358e-09 1.22815e-09 1.15022e-09 1.15217e-09 -5.42733e-09 -5.43587e-09 1.15217e-09 1.15009e-09 -5.43587e-09 -5.43754e-09 -5.42733e-09 -5.43587e-09 2.02183e-08 2.02318e-08 -5.43587e-09 -5.43754e-09 2.02318e-08 2.02753e-08 1.15009e-09 1.1358e-09 -5.43754e-09 -5.33733e-09 1.1358e-09 1.22815e-09 -5.33733e-09 -5.67554e-09 -5.43754e-09 -5.33733e-09 2.02753e-08 2.00354e-08 -5.33733e-09 -5.67554e-09 2.00354e-08 2.02059e-08 -1.46006e-11 -4.41502e-11 -1.40273e-10 -4.02551e-11 -4.41502e-11 -5.85351e-11 -4.02551e-11 5.32201e-11 -1.40273e-10 -4.02551e-11 1.22815e-09 9.23518e-10 -4.02551e-11 5.32201e-11 9.23518e-10 7.33956e-10 -5.85351e-11 1.091e-10 5.32201e-11 -3.44594e-10 1.091e-10 2.50693e-10 -3.44594e-10 -3.3425e-10 5.32201e-11 -3.44594e-10 7.33956e-10 2.22958e-09 -3.44594e-10 -3.3425e-10 2.22958e-09 3.50998e-09 1.22815e-09 9.23518e-10 -5.67554e-09 -5.537e-09 9.23518e-10 7.33956e-10 -5.537e-09 -4.77959e-09 -5.67554e-09 -5.537e-09 2.02059e-08 2.07284e-08 -5.537e-09 -4.77959e-09 2.07284e-08 2.07602e-08 7.33956e-10 2.22958e-09 -4.77959e-09 -4.46568e-09 2.22958e-09 3.50998e-09 -4.46568e-09 -2.53922e-09 -4.77959e-09 -4.46568e-09 2.07602e-08 1.806e-08 -4.46568e-09 -2.53922e-09 1.806e-08 2.50234e-08 2.02252e-08 2.02253e-08 -6.85922e-08 -6.85922e-08 2.02253e-08 2.02252e-08 -6.85922e-08 -6.85922e-08 -6.85922e-08 -6.85922e-08 1.196e-07 1.196e-07 -6.85922e-08 -6.85922e-08 1.196e-07 1.196e-07 2.02252e-08 2.02252e-08 -6.85922e-08 -6.85921e-08 2.02252e-08 2.02255e-08 -6.85921e-08 -6.85928e-08 -6.85922e-08 -6.85921e-08 1.196e-07 1.19599e-07 -6.85921e-08 -6.85928e-08 1.19599e-07 1.19602e-07 1.196e-07 1.196e-07 -1.10915e-07 -1.10914e-07 1.196e-07 1.196e-07 -1.10914e-07 -1.10915e-07 -1.10915e-07 -1.10914e-07 -1.13897e-06 -1.13897e-06 -1.10914e-07 -1.10915e-07 -1.13897e-06 -1.13897e-06 1.196e-07 1.19599e-07 -1.10915e-07 -1.10915e-07 1.19599e-07 1.19602e-07 -1.10915e-07 -1.10912e-07 -1.10915e-07 -1.10915e-07 -1.13897e-06 -1.13897e-06 -1.10915e-07 -1.10912e-07 -1.13897e-06 -1.13898e-06 2.02255e-08 2.02246e-08 -6.85928e-08 -6.85908e-08 2.02246e-08 2.02263e-08 -6.85908e-08 -6.85935e-08 -6.85928e-08 -6.85908e-08 1.19602e-07 1.19598e-07 -6.85908e-08 -6.85935e-08 1.19598e-07 1.19595e-07 