# vtk DataFile Version 3.0
#This file was generated by the deal.II library on 2022/11/2 at 18:39:50
ASCII
DATASET UNSTRUCTURED_GRID

POINTS 4096 double
0 0.5 0
0.03125 0.5 0
0 0.53125 0
0.03125 0.53125 0
0.03125 0.5 0
0.0625 0.5 0
0.03125 0.53125 0
0.0625 0.53125 0
0 0.53125 0
0.03125 0.53125 0
0 0.5625 0
0.03125 0.5625 0
0.03125 0.53125 0
0.0625 0.53125 0
0.03125 0.5625 0
0.0625 0.5625 0
0.0625 0.5 0
0.09375 0.5 0
0.0625 0.53125 0
0.09375 0.53125 0
0.09375 0.5 0
0.125 0.5 0
0.09375 0.53125 0
0.125 0.53125 0
0.0625 0.53125 0
0.09375 0.53125 0
0.0625 0.5625 0
0.09375 0.5625 0
0.09375 0.53125 0
0.125 0.53125 0
0.09375 0.5625 0
0.125 0.5625 0
0 0.5625 0
0.03125 0.5625 0
0 0.59375 0
0.03125 0.59375 0
0.03125 0.5625 0
0.0625 0.5625 0
0.03125 0.59375 0
0.0625 0.59375 0
0 0.59375 0
0.03125 0.59375 0
0 0.625 0
0.03125 0.625 0
0.03125 0.59375 0
0.0625 0.59375 0
0.03125 0.625 0
0.0625 0.625 0
0.0625 0.5625 0
0.09375 0.5625 0
0.0625 0.59375 0
0.09375 0.59375 0
0.09375 0.5625 0
0.125 0.5625 0
0.09375 0.59375 0
0.125 0.59375 0
0.0625 0.59375 0
0.09375 0.59375 0
0.0625 0.625 0
0.09375 0.625 0
0.09375 0.59375 0
0.125 0.59375 0
0.09375 0.625 0
0.125 0.625 0
0.125 0.5 0
0.15625 0.5 0
0.125 0.53125 0
0.15625 0.53125 0
0.15625 0.5 0
0.1875 0.5 0
0.15625 0.53125 0
0.1875 0.53125 0
0.125 0.53125 0
0.15625 0.53125 0
0.125 0.5625 0
0.15625 0.5625 0
0.15625 0.53125 0
0.1875 0.53125 0
0.15625 0.5625 0
0.1875 0.5625 0
0.1875 0.5 0
0.21875 0.5 0
0.1875 0.53125 0
0.21875 0.53125 0
0.21875 0.5 0
0.25 0.5 0
0.21875 0.53125 0
0.25 0.53125 0
0.1875 0.53125 0
0.21875 0.53125 0
0.1875 0.5625 0
0.21875 0.5625 0
0.21875 0.53125 0
0.25 0.53125 0
0.21875 0.5625 0
0.25 0.5625 0
0.125 0.5625 0
0.15625 0.5625 0
0.125 0.59375 0
0.15625 0.59375 0
0.15625 0.5625 0
0.1875 0.5625 0
0.15625 0.59375 0
0.1875 0.59375 0
0.125 0.59375 0
0.15625 0.59375 0
0.125 0.625 0
0.15625 0.625 0
0.15625 0.59375 0
0.1875 0.59375 0
0.15625 0.625 0
0.1875 0.625 0
0.1875 0.5625 0
0.21875 0.5625 0
0.1875 0.59375 0
0.21875 0.59375 0
0.21875 0.5625 0
0.25 0.5625 0
0.21875 0.59375 0
0.25 0.59375 0
0.1875 0.59375 0
0.21875 0.59375 0
0.1875 0.625 0
0.21875 0.625 0
0.21875 0.59375 0
0.25 0.59375 0
0.21875 0.625 0
0.25 0.625 0
0 0.625 0
0.03125 0.625 0
0 0.65625 0
0.03125 0.65625 0
0.03125 0.625 0
0.0625 0.625 0
0.03125 0.65625 0
0.0625 0.65625 0
0 0.65625 0
0.03125 0.65625 0
0 0.6875 0
0.03125 0.6875 0
0.03125 0.65625 0
0.0625 0.65625 0
0.03125 0.6875 0
0.0625 0.6875 0
0.0625 0.625 0
0.09375 0.625 0
0.0625 0.65625 0
0.09375 0.65625 0
0.09375 0.625 0
0.125 0.625 0
0.09375 0.65625 0
0.125 0.65625 0
0.0625 0.65625 0
0.09375 0.65625 0
0.0625 0.6875 0
0.09375 0.6875 0
0.09375 0.65625 0
0.125 0.65625 0
0.09375 0.6875 0
0.125 0.6875 0
0 0.6875 0
0.03125 0.6875 0
0 0.71875 0
0.03125 0.71875 0
0.03125 0.6875 0
0.0625 0.6875 0
0.03125 0.71875 0
0.0625 0.71875 0
0 0.71875 0
0.03125 0.71875 0
0 0.75 0
0.03125 0.75 0
0.03125 0.71875 0
0.0625 0.71875 0
0.03125 0.75 0
0.0625 0.75 0
0.0625 0.6875 0
0.09375 0.6875 0
0.0625 0.71875 0
0.09375 0.71875 0
0.09375 0.6875 0
0.125 0.6875 0
0.09375 0.71875 0
0.125 0.71875 0
0.0625 0.71875 0
0.09375 0.71875 0
0.0625 0.75 0
0.09375 0.75 0
0.09375 0.71875 0
0.125 0.71875 0
0.09375 0.75 0
0.125 0.75 0
0.125 0.625 0
0.15625 0.625 0
0.125 0.65625 0
0.15625 0.65625 0
0.15625 0.625 0
0.1875 0.625 0
0.15625 0.65625 0
0.1875 0.65625 0
0.125 0.65625 0
0.15625 0.65625 0
0.125 0.6875 0
0.15625 0.6875 0
0.15625 0.65625 0
0.1875 0.65625 0
0.15625 0.6875 0
0.1875 0.6875 0
0.1875 0.625 0
0.21875 0.625 0
0.1875 0.65625 0
0.21875 0.65625 0
0.21875 0.625 0
0.25 0.625 0
0.21875 0.65625 0
0.25 0.65625 0
0.1875 0.65625 0
0.21875 0.65625 0
0.1875 0.6875 0
0.21875 0.6875 0
0.21875 0.65625 0
0.25 0.65625 0
0.21875 0.6875 0
0.25 0.6875 0
0.125 0.6875 0
0.15625 0.6875 0
0.125 0.71875 0
0.15625 0.71875 0
0.15625 0.6875 0
0.1875 0.6875 0
0.15625 0.71875 0
0.1875 0.71875 0
0.125 0.71875 0
0.15625 0.71875 0
0.125 0.75 0
0.15625 0.75 0
0.15625 0.71875 0
0.1875 0.71875 0
0.15625 0.75 0
0.1875 0.75 0
0.1875 0.6875 0
0.21875 0.6875 0
0.1875 0.71875 0
0.21875 0.71875 0
0.21875 0.6875 0
0.25 0.6875 0
0.21875 0.71875 0
0.25 0.71875 0
0.1875 0.71875 0
0.21875 0.71875 0
0.1875 0.75 0
0.21875 0.75 0
0.21875 0.71875 0
0.25 0.71875 0
0.21875 0.75 0
0.25 0.75 0
0.25 0.5 0
0.28125 0.5 0
0.25 0.53125 0
0.28125 0.53125 0
0.28125 0.5 0
0.3125 0.5 0
0.28125 0.53125 0
0.3125 0.53125 0
0.25 0.53125 0
0.28125 0.53125 0
0.25 0.5625 0
0.28125 0.5625 0
0.28125 0.53125 0
0.3125 0.53125 0
0.28125 0.5625 0
0.3125 0.5625 0
0.3125 0.5 0
0.34375 0.5 0
0.3125 0.53125 0
0.34375 0.53125 0
0.34375 0.5 0
0.375 0.5 0
0.34375 0.53125 0
0.375 0.53125 0
0.3125 0.53125 0
0.34375 0.53125 0
0.3125 0.5625 0
0.34375 0.5625 0
0.34375 0.53125 0
0.375 0.53125 0
0.34375 0.5625 0
0.375 0.5625 0
0.25 0.5625 0
0.28125 0.5625 0
0.25 0.59375 0
0.28125 0.59375 0
0.28125 0.5625 0
0.3125 0.5625 0
0.28125 0.59375 0
0.3125 0.59375 0
0.25 0.59375 0
0.28125 0.59375 0
0.25 0.625 0
0.28125 0.625 0
0.28125 0.59375 0
0.3125 0.59375 0
0.28125 0.625 0
0.3125 0.625 0
0.3125 0.5625 0
0.34375 0.5625 0
0.3125 0.59375 0
0.34375 0.59375 0
0.34375 0.5625 0
0.375 0.5625 0
0.34375 0.59375 0
0.375 0.59375 0
0.3125 0.59375 0
0.34375 0.59375 0
0.3125 0.625 0
0.34375 0.625 0
0.34375 0.59375 0
0.375 0.59375 0
0.34375 0.625 0
0.375 0.625 0
0.375 0.5 0
0.40625 0.5 0
0.375 0.53125 0
0.40625 0.53125 0
0.40625 0.5 0
0.4375 0.5 0
0.40625 0.53125 0
0.4375 0.53125 0
0.375 0.53125 0
0.40625 0.53125 0
0.375 0.5625 0
0.40625 0.5625 0
0.40625 0.53125 0
0.4375 0.53125 0
0.40625 0.5625 0
0.4375 0.5625 0
0.4375 0.5 0
0.46875 0.5 0
0.4375 0.53125 0
0.46875 0.53125 0
0.46875 0.5 0
0.5 0.5 0
0.46875 0.53125 0
0.5 0.53125 0
0.4375 0.53125 0
0.46875 0.53125 0
0.4375 0.5625 0
0.46875 0.5625 0
0.46875 0.53125 0
0.5 0.53125 0
0.46875 0.5625 0
0.5 0.5625 0
0.375 0.5625 0
0.40625 0.5625 0
0.375 0.59375 0
0.40625 0.59375 0
0.40625 0.5625 0
0.4375 0.5625 0
0.40625 0.59375 0
0.4375 0.59375 0
0.375 0.59375 0
0.40625 0.59375 0
0.375 0.625 0
0.40625 0.625 0
0.40625 0.59375 0
0.4375 0.59375 0
0.40625 0.625 0
0.4375 0.625 0
0.4375 0.5625 0
0.46875 0.5625 0
0.4375 0.59375 0
0.46875 0.59375 0
0.46875 0.5625 0
0.5 0.5625 0
0.46875 0.59375 0
0.5 0.59375 0
0.4375 0.59375 0
0.46875 0.59375 0
0.4375 0.625 0
0.46875 0.625 0
0.46875 0.59375 0
0.5 0.59375 0
0.46875 0.625 0
0.5 0.625 0
0.25 0.625 0
0.28125 0.625 0
0.25 0.65625 0
0.28125 0.65625 0
0.28125 0.625 0
0.3125 0.625 0
0.28125 0.65625 0
0.3125 0.65625 0
0.25 0.65625 0
0.28125 0.65625 0
0.25 0.6875 0
0.28125 0.6875 0
0.28125 0.65625 0
0.3125 0.65625 0
0.28125 0.6875 0
0.3125 0.6875 0
0.3125 0.625 0
0.34375 0.625 0
0.3125 0.65625 0
0.34375 0.65625 0
0.34375 0.625 0
0.375 0.625 0
0.34375 0.65625 0
0.375 0.65625 0
0.3125 0.65625 0
0.34375 0.65625 0
0.3125 0.6875 0
0.34375 0.6875 0
0.34375 0.65625 0
0.375 0.65625 0
0.34375 0.6875 0
0.375 0.6875 0
0.25 0.6875 0
0.28125 0.6875 0
0.25 0.71875 0
0.28125 0.71875 0
0.28125 0.6875 0
0.3125 0.6875 0
0.28125 0.71875 0
0.3125 0.71875 0
0.25 0.71875 0
0.28125 0.71875 0
0.25 0.75 0
0.28125 0.75 0
0.28125 0.71875 0
0.3125 0.71875 0
0.28125 0.75 0
0.3125 0.75 0
0.3125 0.6875 0
0.34375 0.6875 0
0.3125 0.71875 0
0.34375 0.71875 0
0.34375 0.6875 0
0.375 0.6875 0
0.34375 0.71875 0
0.375 0.71875 0
0.3125 0.71875 0
0.34375 0.71875 0
0.3125 0.75 0
0.34375 0.75 0
0.34375 0.71875 0
0.375 0.71875 0
0.34375 0.75 0
0.375 0.75 0
0.375 0.625 0
0.40625 0.625 0
0.375 0.65625 0
0.40625 0.65625 0
0.40625 0.625 0
0.4375 0.625 0
0.40625 0.65625 0
0.4375 0.65625 0
0.375 0.65625 0
0.40625 0.65625 0
0.375 0.6875 0
0.40625 0.6875 0
0.40625 0.65625 0
0.4375 0.65625 0
0.40625 0.6875 0
0.4375 0.6875 0
0.4375 0.625 0
0.46875 0.625 0
0.4375 0.65625 0
0.46875 0.65625 0
0.46875 0.625 0
0.5 0.625 0
0.46875 0.65625 0
0.5 0.65625 0
0.4375 0.65625 0
0.46875 0.65625 0
0.4375 0.6875 0
0.46875 0.6875 0
0.46875 0.65625 0
0.5 0.65625 0
0.46875 0.6875 0
0.5 0.6875 0
0.375 0.6875 0
0.40625 0.6875 0
0.375 0.71875 0
0.40625 0.71875 0
0.40625 0.6875 0
0.4375 0.6875 0
0.40625 0.71875 0
0.4375 0.71875 0
0.375 0.71875 0
0.40625 0.71875 0
0.375 0.75 0
0.40625 0.75 0
0.40625 0.71875 0
0.4375 0.71875 0
0.40625 0.75 0
0.4375 0.75 0
0.4375 0.6875 0
0.46875 0.6875 0
0.4375 0.71875 0
0.46875 0.71875 0
0.46875 0.6875 0
0.5 0.6875 0
0.46875 0.71875 0
0.5 0.71875 0
0.4375 0.71875 0
0.46875 0.71875 0
0.4375 0.75 0
0.46875 0.75 0
0.46875 0.71875 0
0.5 0.71875 0
0.46875 0.75 0
0.5 0.75 0
0 0.75 0
0.03125 0.75 0
0 0.78125 0
0.03125 0.78125 0
0.03125 0.75 0
0.0625 0.75 0
0.03125 0.78125 0
0.0625 0.78125 0
0 0.78125 0
0.03125 0.78125 0
0 0.8125 0
0.03125 0.8125 0
0.03125 0.78125 0
0.0625 0.78125 0
0.03125 0.8125 0
0.0625 0.8125 0
0.0625 0.75 0
0.09375 0.75 0
0.0625 0.78125 0
0.09375 0.78125 0
0.09375 0.75 0
0.125 0.75 0
0.09375 0.78125 0
0.125 0.78125 0
0.0625 0.78125 0
0.09375 0.78125 0
0.0625 0.8125 0
0.09375 0.8125 0
0.09375 0.78125 0
0.125 0.78125 0
0.09375 0.8125 0
0.125 0.8125 0
0 0.8125 0
0.03125 0.8125 0
0 0.84375 0
0.03125 0.84375 0
0.03125 0.8125 0
0.0625 0.8125 0
0.03125 0.84375 0
0.0625 0.84375 0
0 0.84375 0
0.03125 0.84375 0
0 0.875 0
0.03125 0.875 0
0.03125 0.84375 0
0.0625 0.84375 0
0.03125 0.875 0
0.0625 0.875 0
0.0625 0.8125 0
0.09375 0.8125 0
0.0625 0.84375 0
0.09375 0.84375 0
0.09375 0.8125 0
0.125 0.8125 0
0.09375 0.84375 0
0.125 0.84375 0
0.0625 0.84375 0
0.09375 0.84375 0
0.0625 0.875 0
0.09375 0.875 0
0.09375 0.84375 0
0.125 0.84375 0
0.09375 0.875 0
0.125 0.875 0
0.125 0.75 0
0.15625 0.75 0
0.125 0.78125 0
0.15625 0.78125 0
0.15625 0.75 0
0.1875 0.75 0
0.15625 0.78125 0
0.1875 0.78125 0
0.125 0.78125 0
0.15625 0.78125 0
0.125 0.8125 0
0.15625 0.8125 0
0.15625 0.78125 0
0.1875 0.78125 0
0.15625 0.8125 0
0.1875 0.8125 0
0.1875 0.75 0
0.21875 0.75 0
0.1875 0.78125 0
0.21875 0.78125 0
0.21875 0.75 0
0.25 0.75 0
0.21875 0.78125 0
0.25 0.78125 0
0.1875 0.78125 0
0.21875 0.78125 0
0.1875 0.8125 0
0.21875 0.8125 0
0.21875 0.78125 0
0.25 0.78125 0
0.21875 0.8125 0
0.25 0.8125 0
0.125 0.8125 0
0.15625 0.8125 0
0.125 0.84375 0
0.15625 0.84375 0
0.15625 0.8125 0
[...]
POINT_DATA 4096
SCALARS x_dis double 1
LOOKUP_TABLE default
7.96139e-15 1.41415e-14 -7.98187e-14 -6.18274e-14 1.41415e-14 6.39104e-15 -6.18274e-14 -3.71028e-14 -7.98187e-14 -6.18274e-14 1.95318e-13 2.9063e-13 -6.18274e-14 -3.71028e-14 2.9063e-13 1.96077e-13 6.39104e-15 9.57676e-15 -3.71028e-14 -4.92565e-14 9.57676e-15 9.08319e-15 -4.92565e-14 -4.78245e-14 -3.71028e-14 -4.92565e-14 1.96077e-13 2.28832e-13 -4.92565e-14 -4.78245e-14 2.28832e-13 2.2903e-13 1.95318e-13 2.9063e-13 -1.43391e-12 -1.18364e-12 2.9063e-13 1.96077e-13 -1.18364e-12 -9.1491e-13 -1.43391e-12 -1.18364e-12 3.73126e-12 5.09956e-12 -1.18364e-12 -9.1491e-13 5.09956e-12 4.15174e-12 1.96077e-13 2.28832e-13 -9.1491e-13 -1.02292e-12 2.28832e-13 2.2903e-13 -1.02292e-12 -1.03559e-12 -9.1491e-13 -1.02292e-12 4.15174e-12 4.3633e-12 -1.02292e-12 -1.03559e-12 4.3633e-12 4.46375e-12 9.08319e-15 8.90474e-15 -4.78245e-14 -4.67368e-14 8.90474e-15 9.17737e-15 -4.67368e-14 -4.8043e-14 -4.78245e-14 -4.67368e-14 2.2903e-13 2.23465e-13 -4.67368e-14 -4.8043e-14 2.23465e-13 2.28104e-13 9.17737e-15 9.00118e-15 -4.8043e-14 -4.72486e-14 9.00118e-15 9.09391e-15 -4.72486e-14 -4.76476e-14 -4.8043e-14 -4.72486e-14 2.28104e-13 2.2566e-13 -4.72486e-14 -4.76476e-14 2.2566e-13 2.26774e-13 2.2903e-13 2.23465e-13 -1.03559e-12 -1.00795e-12 2.23465e-13 2.28104e-13 -1.00795e-12 -1.0288e-12 -1.03559e-12 -1.00795e-12 4.46375e-12 4.35833e-12 -1.00795e-12 -1.0288e-12 4.35833e-12 4.42325e-12 2.28104e-13 2.2566e-13 -1.0288e-12 -1.01828e-12 2.2566e-13 2.26774e-13 -1.01828e-12 -1.02289e-12 -1.0288e-12 -1.01828e-12 4.42325e-12 4.39392e-12 -1.01828e-12 -1.02289e-12 4.39392e-12 4.40567e-12 3.73126e-12 5.09956e-12 -2.31976e-11 -1.97068e-11 5.09956e-12 4.15174e-12 -1.97068e-11 -1.76532e-11 -2.31976e-11 -1.97068e-11 6.15166e-11 7.90162e-11 -1.97068e-11 -1.76532e-11 7.90162e-11 7.35399e-11 4.15174e-12 4.3633e-12 -1.76532e-11 -1.80102e-11 4.3633e-12 4.46375e-12 -1.80102e-11 -1.8628e-11 -1.76532e-11 -1.80102e-11 7.35399e-11 7.24359e-11 -1.80102e-11 -1.8628e-11 7.24359e-11 7.49061e-11 6.15166e-11 7.90162e-11 -3.41004e-10 -2.88105e-10 7.90162e-11 7.35399e-11 -2.88105e-10 -2.90625e-10 -3.41004e-10 -2.88105e-10 8.62626e-10 1.06431e-09 -2.88105e-10 -2.90625e-10 1.06431e-09 1.12526e-09 7.35399e-11 7.24359e-11 -2.90625e-10 -2.79009e-10 7.24359e-11 7.49061e-11 -2.79009e-10 -2.92272e-10 -2.90625e-10 -2.79009e-10 1.12526e-09 1.04875e-09 -2.79009e-10 -2.92272e-10 1.04875e-09 1.09338e-09 4.46375e-12 4.35833e-12 -1.8628e-11 -1.81362e-11 4.35833e-12 4.42325e-12 -1.81362e-11 -1.84164e-11 -1.8628e-11 -1.81362e-11 7.49061e-11 7.33267e-11 -1.81362e-11 -1.84164e-11 7.33267e-11 7.4088e-11 4.42325e-12 4.39392e-12 -1.84164e-11 -1.82957e-11 4.39392e-12 4.40567e-12 -1.82957e-11 -1.8342e-11 -1.84164e-11 -1.82957e-11 7.4088e-11 7.37896e-11 -1.82957e-11 -1.8342e-11 7.37896e-11 7.38933e-11 7.49061e-11 7.33267e-11 -2.92272e-10 -2.85094e-10 7.33267e-11 7.4088e-11 -2.85094e-10 -2.88316e-10 -2.92272e-10 -2.85094e-10 1.09338e-09 1.07321e-09 -2.85094e-10 -2.88316e-10 1.07321e-09 1.08038e-09 7.4088e-11 7.37896e-11 -2.88316e-10 -2.8715e-10 7.37896e-11 7.38933e-11 -2.8715e-10 -2.87529e-10 -2.88316e-10 -2.8715e-10 1.08038e-09 1.0782e-09 -2.8715e-10 -2.87529e-10 1.0782e-09 1.07877e-09 9.09391e-15 9.05167e-15 -4.76476e-14 -4.74727e-14 9.05167e-15 9.06914e-15 -4.74727e-14 -4.75423e-14 -4.76476e-14 -4.74727e-14 2.26774e-13 2.26323e-13 -4.74727e-14 -4.75423e-14 2.26323e-13 2.26491e-13 9.06914e-15 9.06199e-15 -4.75423e-14 -4.75169e-14 9.06199e-15 9.06734e-15 -4.75169e-14 -4.7524e-14 -4.75423e-14 -4.75169e-14 2.26491e-13 2.26433e-13 -4.75169e-14 -4.7524e-14 2.26433e-13 2.26451e-13 2.26774e-13 2.26323e-13 -1.02289e-12 -1.02109e-12 2.26323e-13 2.26491e-13 -1.02109e-12 -1.02173e-12 -1.02289e-12 -1.02109e-12 4.40567e-12 4.40144e-12 -1.02109e-12 -1.02173e-12 4.40144e-12 4.40284e-12 2.26491e-13 2.26433e-13 -1.02173e-12 -1.02152e-12 2.26433e-13 2.26451e-13 -1.02152e-12 -1.02159e-12 -1.02173e-12 -1.02152e-12 4.40284e-12 4.40241e-12 -1.02152e-12 -1.02159e-12 4.40241e-12 4.40253e-12 9.06734e-15 9.05299e-15 -4.7524e-14 -4.7529e-14 9.05299e-15 9.09592e-15 -4.7529e-14 -4.75036e-14 -4.7524e-14 -4.7529e-14 2.26451e-13 2.26448e-13 -4.7529e-14 -4.75036e-14 2.26448e-13 2.26445e-13 9.09592e-15 9.10695e-15 -4.75036e-14 -4.75351e-14 9.10695e-15 7.37373e-15 -4.75351e-14 -4.80143e-14 -4.75036e-14 -4.75351e-14 2.26445e-13 2.26453e-13 -4.75351e-14 -4.80143e-14 2.26453e-13 2.26241e-13 2.26451e-13 2.26448e-13 -1.02159e-12 -1.02157e-12 2.26448e-13 2.26445e-13 -1.02157e-12 -1.02157e-12 -1.02159e-12 -1.02157e-12 4.40253e-12 4.4025e-12 -1.02157e-12 -1.02157e-12 4.4025e-12 4.4025e-12 2.26445e-13 2.26453e-13 -1.02157e-12 -1.02158e-12 2.26453e-13 2.26241e-13 -1.02158e-12 -1.02156e-12 -1.02157e-12 -1.02158e-12 4.4025e-12 4.40251e-12 -1.02158e-12 -1.02156e-12 4.40251e-12 4.40249e-12 4.40567e-12 4.40144e-12 -1.8342e-11 -1.8326e-11 4.40144e-12 4.40284e-12 -1.8326e-11 -1.83311e-11 -1.8342e-11 -1.8326e-11 7.38933e-11 7.38608e-11 -1.8326e-11 -1.83311e-11 7.38608e-11 7.38701e-11 4.40284e-12 4.40241e-12 -1.83311e-11 -1.83296e-11 4.40241e-12 4.40253e-12 -1.83296e-11 -1.833e-11 -1.83311e-11 -1.83296e-11 7.38701e-11 7.38677e-11 -1.83296e-11 -1.833e-11 7.38677e-11 7.38683e-11 7.38933e-11 7.38608e-11 -2.87529e-10 -2.87418e-10 7.38608e-11 7.38701e-11 -2.87418e-10 -2.87447e-10 -2.87529e-10 -2.87418e-10 1.07877e-09 1.07864e-09 -2.87418e-10 -2.87447e-10 1.07864e-09 1.07866e-09 7.38701e-11 7.38677e-11 -2.87447e-10 -2.8744e-10 7.38677e-11 7.38683e-11 -2.8744e-10 -2.87442e-10 -2.87447e-10 -2.8744e-10 1.07866e-09 1.07866e-09 -2.8744e-10 -2.87442e-10 1.07866e-09 1.07866e-09 4.40253e-12 4.4025e-12 -1.833e-11 -1.83299e-11 4.4025e-12 4.4025e-12 -1.83299e-11 -1.83299e-11 -1.833e-11 -1.83299e-11 7.38683e-11 7.38681e-11 -1.83299e-11 -1.83299e-11 7.38681e-11 7.38682e-11 4.4025e-12 4.40251e-12 -1.83299e-11 -1.83299e-11 4.40251e-12 4.40249e-12 -1.83299e-11 -1.83299e-11 -1.83299e-11 -1.83299e-11 7.38682e-11 7.38682e-11 -1.83299e-11 -1.83299e-11 7.38682e-11 7.38682e-11 7.38683e-11 7.38681e-11 -2.87442e-10 -2.87442e-10 7.38681e-11 7.38682e-11 -2.87442e-10 -2.87442e-10 -2.87442e-10 -2.87442e-10 1.07866e-09 1.07866e-09 -2.87442e-10 -2.87442e-10 1.07866e-09 1.07866e-09 7.38682e-11 7.38682e-11 -2.87442e-10 -2.87442e-10 7.38682e-11 7.38682e-11 -2.87442e-10 -2.87442e-10 -2.87442e-10 -2.87442e-10 1.07866e-09 1.07866e-09 -2.87442e-10 -2.87442e-10 1.07866e-09 1.07866e-09 8.62626e-10 1.06431e-09 -4.47572e-09 -3.54314e-09 1.06431e-09 1.12526e-09 -3.54314e-09 -4.06922e-09 -4.47572e-09 -3.54314e-09 9.8053e-09 1.12799e-08 -3.54314e-09 -4.06922e-09 1.12799e-08 1.42023e-08 1.12526e-09 1.04875e-09 -4.06922e-09 -3.69854e-09 1.04875e-09 1.09338e-09 -3.69854e-09 -3.90914e-09 -4.06922e-09 -3.69854e-09 1.42023e-08 1.25571e-08 -3.69854e-09 -3.90914e-09 1.25571e-08 1.31394e-08 9.8053e-09 1.12799e-08 -4.90519e-08 -2.94544e-08 1.12799e-08 1.42023e-08 -2.94544e-08 -4.3018e-08 -4.90519e-08 -2.94544e-08 5.22717e-08 5.20417e-08 -2.94544e-08 -4.3018e-08 5.20417e-08 1.14203e-07 1.42023e-08 1.25571e-08 -4.3018e-08 -3.71396e-08 1.25571e-08 1.31394e-08 -3.71396e-08 -3.94884e-08 -4.3018e-08 -3.71396e-08 1.14203e-07 8.95893e-08 -3.71396e-08 -3.94884e-08 8.95893e-08 9.55772e-08 1.09338e-09 1.07321e-09 -3.90914e-09 -3.82186e-09 1.07321e-09 1.08038e-09 -3.82186e-09 -3.85291e-09 -3.90914e-09 -3.82186e-09 1.31394e-08 1.29545e-08 -3.82186e-09 -3.85291e-09 1.29545e-08 1.30001e-08 1.08038e-09 1.0782e-09 -3.85291e-09 -3.84366e-09 1.0782e-09 1.07877e-09 -3.84366e-09 -3.84608e-09 -3.85291e-09 -3.84366e-09 1.30001e-08 1.29911e-08 -3.84366e-09 -3.84608e-09 1.29911e-08 1.2992e-08 1.31394e-08 1.29545e-08 -3.94884e-08 -3.87275e-08 1.29545e-08 1.30001e-08 -3.87275e-08 -3.89506e-08 -3.94884e-08 -3.87275e-08 9.55772e-08 9.44637e-08 -3.87275e-08 -3.89506e-08 9.44637e-08 9.45631e-08 1.30001e-08 1.29911e-08 -3.89506e-08 -3.88961e-08 1.29911e-08 1.2992e-08 -3.88961e-08 -3.89072e-08 -3.89506e-08 -3.88961e-08 9.45631e-08 9.45942e-08 -3.88961e-08 -3.89072e-08 9.45942e-08 9.45718e-08 5.22717e-08 5.20417e-08 -3.44112e-07 1.053e-07 5.20417e-08 1.14203e-07 1.053e-07 -1.10596e-07 -3.44112e-07 1.053e-07 -1.56065e-06 -1.61813e-06 1.053e-07 -1.10596e-07 -1.61813e-06 -8.70173e-07 1.14203e-07 8.95893e-08 -1.10596e-07 -6.49954e-08 8.95893e-08 9.55772e-08 -6.49954e-08 -7.26159e-08 -1.10596e-07 -6.49954e-08 -8.70173e-07 -1.11138e-06 -6.49954e-08 -7.26159e-08 -1.11138e-06 -1.06357e-06 -1.56065e-06 -1.61813e-06 2.82022e-06 1.22234e-05 -1.61813e-06 -8.70173e-07 1.22234e-05 1.10841e-05 2.82022e-06 1.22234e-05 -7e-05 -7e-05 1.22234e-05 1.10841e-05 -7e-05 -7e-05 -8.70173e-07 -1.11138e-06 1.10841e-05 1.10833e-05 -1.11138e-06 -1.06357e-06 1.10833e-05 1.11291e-05 1.10841e-05 1.10833e-05 -7e-05 -7e-05 1.10833e-05 1.11291e-05 -7e-05 -7e-05 9.55772e-08 9.44637e-08 -7.26159e-08 -7.20753e-08 9.44637e-08 9.45631e-08 -7.20753e-08 -7.19494e-08 -7.26159e-08 -7.20753e-08 -1.06357e-06 -1.07007e-06 -7.20753e-08 -7.19494e-08 -1.07007e-06 -1.07013e-06 9.45631e-08 9.45942e-08 -7.19494e-08 -7.20206e-08 9.45942e-08 9.45718e-08 -7.20206e-08 -7.19998e-08 -7.19494e-08 -7.20206e-08 -1.07013e-06 -1.0697e-06 -7.20206e-08 -7.19998e-08 -1.0697e-06 -1.06989e-06 -1.06357e-06 -1.07007e-06 1.11291e-05 1.11117e-05 -1.07007e-06 -1.07013e-06 1.11117e-05 1.11165e-05 1.11291e-05 1.11117e-05 -7e-05 -7e-05 1.11117e-05 1.11165e-05 -7e-05 -7e-05 -1.07013e-06 -1.0697e-06 1.11165e-05 1.11154e-05 -1.0697e-06 -1.06989e-06 1.11154e-05 1.11156e-05 1.11165e-05 1.11154e-05 -7e-05 -7e-05 1.11154e-05 1.11156e-05 -7e-05 -7e-05 1.07877e-09 1.07864e-09 -3.84608e-09 -3.84555e-09 1.07864e-09 1.07866e-09 -3.84555e-09 -3.84563e-09 -3.84608e-09 -3.84555e-09 1.2992e-08 1.29923e-08 -3.84555e-09 -3.84563e-09 1.29923e-08 1.29921e-08 1.07866e-09 1.07866e-09 -3.84563e-09 -3.84563e-09 1.07866e-09 1.07866e-09 -3.84563e-09 -3.84563e-09 -3.84563e-09 -3.84563e-09 1.29921e-08 1.29922e-08 -3.84563e-09 -3.84563e-09 1.29922e-08 1.29921e-08 1.2992e-08 1.29923e-08 -3.89072e-08 -3.89056e-08 1.29923e-08 1.29921e-08 -3.89056e-08 -3.89056e-08 -3.89072e-08 -3.89056e-08 9.45718e-08 9.45808e-08 -3.89056e-08 -3.89056e-08 9.45808e-08 9.45779e-08 1.29921e-08 1.29922e-08 -3.89056e-08 -3.89057e-08 1.29922e-08 1.29921e-08 -3.89057e-08 -3.89056e-08 -3.89056e-08 -3.89057e-08 9.45779e-08 9.45787e-08 -3.89057e-08 -3.89056e-08 9.45787e-08 9.45785e-08 1.07866e-09 1.07866e-09 -3.84563e-09 -3.84563e-09 1.07866e-09 1.07866e-09 -3.84563e-09 -3.84563e-09 -3.84563e-09 -3.84563e-09 1.29921e-08 1.29921e-08 -3.84563e-09 -3.84563e-09 1.29921e-08 1.29921e-08 1.07866e-09 1.07866e-09 -3.84563e-09 -3.84563e-09 1.07866e-09 1.07866e-09 -3.84563e-09 -3.84563e-09 -3.84563e-09 -3.84563e-09 1.29921e-08 1.29921e-08 -3.84563e-09 -3.84563e-09 1.29921e-08 1.29921e-08 1.29921e-08 1.29921e-08 -3.89056e-08 -3.89056e-08 1.29921e-08 1.29921e-08 -3.89056e-08 -3.89056e-08 -3.89056e-08 -3.89056e-08 9.45785e-08 9.45785e-08 -3.89056e-08 -3.89056e-08 9.45785e-08 9.45785e-08 1.29921e-08 1.29921e-08 -3.89056e-08 -3.89056e-08 1.29921e-08 1.29921e-08 -3.89056e-08 -3.89056e-08 -3.89056e-08 -3.89056e-08 9.45785e-08 9.45785e-08 -3.89056e-08 -3.89056e-08 9.45785e-08 9.45785e-08 9.45718e-08 9.45808e-08 -7.19998e-08 -7.20043e-08 9.45808e-08 9.45779e-08 -7.20043e-08 -7.20036e-08 -7.19998e-08 -7.20043e-08 -1.06989e-06 -1.06983e-06 -7.20043e-08 -7.20036e-08 -1.06983e-06 -1.06985e-06 9.45779e-08 9.45787e-08 -7.20036e-08 -7.20036e-08 9.45787e-08 9.45785e-08 -7.20036e-08 -7.20037e-08 -7.20036e-08 -7.20036e-08 -1.06985e-06 -1.06984e-06 -7.20036e-08 -7.20037e-08 -1.06984e-06 -1.06984e-06 -1.06989e-06 -1.06983e-06 1.11156e-05 1.11156e-05 -1.06983e-06 -1.06985e-06 1.11156e-05 1.11156e-05 1.11156e-05 1.11156e-05 -7e-05 -7e-05 1.11156e-05 1.11156e-05 -7e-05 -7e-05 -1.06985e-06 -1.06984e-06 1.11156e-05 1.11156e-05 -1.06984e-06 -1.06984e-06 1.11156e-05 1.11156e-05 1.11156e-05 1.11156e-05 -7e-05 -7e-05 1.11156e-05 1.11156e-05 -7e-05 -7e-05 9.45785e-08 9.45785e-08 -7.20037e-08 -7.20036e-08 9.45785e-08 9.45785e-08 -7.20036e-08 -7.20037e-08 -7.20037e-08 -7.20036e-08 -1.06984e-06 -1.06984e-06 -7.20036e-08 -7.20037e-08 -1.06984e-06 -1.06984e-06 9.45785e-08 9.45785e-08 -7.20037e-08 -7.20037e-08 9.45785e-08 9.45785e-08 -7.20037e-08 -7.20037e-08 -7.20037e-08 -7.20037e-08 -1.06984e-06 -1.06984e-06 -7.20037e-08 -7.20037e-08 -1.06984e-06 -1.06984e-06 -1.06984e-06 -1.06984e-06 1.11156e-05 1.11156e-05 -1.06984e-06 -1.06984e-06 1.11156e-05 1.11156e-05 1.11156e-05 1.11156e-05 -7e-05 -7e-05 1.11156e-05 1.11156e-05 -7e-05 -7e-05 -1.06984e-06 -1.06984e-06 1.11156e-05 1.11156e-05 -1.06984e-06 -1.06984e-06 1.11156e-05 1.11156e-05 1.11156e-05 1.11156e-05 -7e-05 -7e-05 1.11156e-05 1.11156e-05 -7e-05 -7e-05 7.37373e-15 2.01621e-14 -4.80143e-14 -4.93897e-14 2.01621e-14 1.92445e-14 -4.93897e-14 -4.94507e-14 -4.80143e-14 -4.93897e-14 2.26241e-13 2.26443e-13 -4.93897e-14 -4.94507e-14 2.26443e-13 2.26755e-13 1.92445e-14 1.84581e-14 -4.94507e-14 -4.92218e-14 1.84581e-14 1.87626e-14 -4.92218e-14 -4.93461e-14 -4.94507e-14 -4.92218e-14 2.26755e-13 2.26614e-13 -4.92218e-14 -4.93461e-14 2.26614e-13 2.26647e-13 2.26241e-13 2.26443e-13 -1.02156e-12 -1.02152e-12 2.26443e-13 2.26755e-13 -1.02152e-12 -1.02158e-12 -1.02156e-12 -1.02152e-12 4.40249e-12 4.40246e-12 -1.02152e-12 -1.02158e-12 4.40246e-12 4.40249e-12 2.26755e-13 2.26614e-13 -1.02158e-12 -1.02155e-12 2.26614e-13 2.26647e-13 -1.02155e-12 -1.02155e-12 -1.02158e-12 -1.02155e-12 4.40249e-12 4.40249e-12 -1.02155e-12 -1.02155e-12 4.40249e-12 4.40246e-12 1.87626e-14 1.86587e-14 -4.93461e-14 -4.93009e-14 1.86587e-14 1.86837e-14 -4.93009e-14 -4.9308e-14 -4.93461e-14 -4.93009e-14 2.26647e-13 2.26649e-13 -4.93009e-14 -4.9308e-14 2.26649e-13 2.26622e-13 1.86837e-14 1.86884e-14 -4.9308e-14 -4.93247e-14 1.86884e-14 1.86635e-14 -4.93247e-14 -4.92783e-14 -4.9308e-14 -4.93247e-14 2.26622e-13 2.26694e-13 -4.93247e-14 -4.92783e-14 2.26694e-13 2.2653e-13 2.26647e-13 2.26649e-13 -1.02155e-12 -1.02157e-12 2.26649e-13 2.26622e-13 -1.02157e-12 -1.0215e-12 -1.02155e-12 -1.02157e-12 4.40246e-12 4.40256e-12 -1.02157e-12 -1.0215e-12 4.40256e-12 4.40228e-12 2.26622e-13 2.26694e-13 -1.0215e-12 -1.02169e-12 2.26694e-13 2.2653e-13 -1.02169e-12 -1.02124e-12 -1.0215e-12 -1.02169e-12 4.40228e-12 4.40302e-12 -1.02169e-12 -1.02124e-12 4.40302e-12 4.4012e-12 4.40249e-12 4.40246e-12 -1.83299e-11 -1.83299e-11 4.40246e-12 4.40249e-12 -1.83299e-11 -1.83299e-11 -1.83299e-11 -1.83299e-11 7.38682e-11 7.38682e-11 -1.83299e-11 -1.83299e-11 7.38682e-11 7.38681e-11 4.40249e-12 4.40249e-12 -1.83299e-11 -1.83299e-11 4.40249e-12 4.40246e-12 -1.83299e-11 -1.83298e-11 -1.83299e-11 -1.83299e-11 7.38681e-11 7.38682e-11 -1.83299e-11 -1.83298e-11 7.38682e-11 7.3868e-11 7.38682e-11 7.38682e-11 -2.87442e-10 -2.87442e-10 7.38682e-11 7.38681e-11 -2.87442e-10 -2.87442e-10 -2.87442e-10 -2.87442e-10 1.07866e-09 1.07866e-09 -2.87442e-10 -2.87442e-10 1.07866e-09 1.07866e-09 7.38681e-11 7.38682e-11 -2.87442e-10 -2.87442e-10 7.38682e-11 7.3868e-11 -2.87442e-10 -2.87441e-10 -2.87442e-10 -2.87442e-10 1.07866e-09 1.07866e-09 -2.87442e-10 -2.87441e-10 1.07866e-09 1.07866e-09 4.40246e-12 4.40256e-12 -1.83298e-11 -1.83301e-11 4.40256e-12 4.40228e-12 -1.83301e-11 -1.83294e-11 -1.83298e-11 -1.83301e-11 7.3868e-11 7.38687e-11 -1.83301e-11 -1.83294e-11 7.38687e-11 7.38665e-11 4.40228e-12 4.40302e-12 -1.83294e-11 -1.83312e-11 4.40302e-12 4.4012e-12 -1.83312e-11 -1.83266e-11 -1.83294e-11 -1.83312e-11 7.38665e-11 7.3873e-11 -1.83312e-11 -1.83266e-11 7.3873e-11 7.38551e-11 7.3868e-11 7.38687e-11 -2.87441e-10 -2.87443e-10 7.38687e-11 7.38665e-11 -2.87443e-10 -2.87438e-10 -2.87441e-10 -2.87443e-10 1.07866e-09 1.07867e-09 -2.87443e-10 -2.87438e-10 1.07867e-09 1.07865e-09 7.38665e-11 7.3873e-11 -2.87438e-10 -2.87452e-10 7.3873e-11 7.38551e-11 -2.87452e-10 -2.87412e-10 -2.87438e-10 -2.87452e-10 1.07865e-09 1.0787e-09 -2.87452e-10 -2.87412e-10 1.0787e-09 1.07855e-09 1.86635e-14 1.87148e-14 -4.92783e-14 -4.93731e-14 1.87148e-14 1.86268e-14 -4.93731e-14 -4.92107e-14 -4.92783e-14 -4.93731e-14 2.2653e-13 2.26863e-13 -4.93731e-14 -4.92107e-14 2.26863e-13 2.26279e-13 1.86268e-14 1.87674e-14 -4.92107e-14 -4.94462e-14 1.87674e-14 1.84603e-14 -4.94462e-14 -4.90301e-14 -4.92107e-14 -4.94462e-14 2.26279e-13 2.27165e-13 -4.94462e-14 -4.90301e-14 2.27165e-13 2.25529e-13 2.2653e-13 2.26863e-13 -1.02124e-12 -1.02221e-12 2.26863e-13 2.26279e-13 -1.02221e-12 -1.02043e-12 -1.02124e-12 -1.02221e-12 4.4012e-12 4.40523e-12 -1.02221e-12 -1.02043e-12 4.40523e-12 4.39742e-12 2.26279e-13 2.27165e-13 -1.02043e-12 -1.02315e-12 2.27165e-13 2.25529e-13 -1.02315e-12 -1.01876e-12 -1.02043e-12 -1.02315e-12 4.39742e-12 4.41055e-12 -1.02315e-12 -1.01876e-12 4.41055e-12 4.38818e-12 1.84603e-14 1.96452e-14 -4.90301e-14 -5.0821e-14 1.96452e-14 1.53496e-14 -5.0821e-14 -4.35061e-14 -4.90301e-14 -5.0821e-14 2.25529e-13 2.3175e-13 -5.0821e-14 -4.35061e-14 2.3175e-13 2.09027e-13 1.53496e-14 2.24061e-14 -4.35061e-14 -6.13297e-14 2.24061e-14 3.82935e-14 -6.13297e-14 -4.7709e-14 -4.35061e-14 -6.13297e-14 2.09027e-13 2.44217e-13 -6.13297e-14 -4.7709e-14 2.44217e-13 3.59135e-13 2.25529e-13 2.3175e-13 -1.01876e-12 -1.0339e-12 2.3175e-13 2.09027e-13 -1.0339e-12 -9.77087e-13 -1.01876e-12 -1.0339e-12 4.38818e-12 4.44924e-12 -1.0339e-12 -9.77087e-13 4.44924e-12 4.26892e-12 2.09027e-13 2.44217e-13 -9.77087e-13 -1.11777e-12 2.44217e-13 3.59135e-13 -1.11777e-12 -9.22111e-13 -9.77087e-13 -1.11777e-12 4.26892e-12 4.44561e-12 -1.11777e-12 -9.22111e-13 4.44561e-12 5.99905e-12 4.4012e-12 4.40523e-12 -1.83266e-11 -1.83376e-11 4.40523e-12 4.39742e-12 -1.83376e-11 -1.83145e-11 -1.83266e-11 -1.83376e-11 7.38551e-11 7.38997e-11 -1.83376e-11 -1.83145e-11 7.38997e-11 7.38e-11 4.39742e-12 4.41055e-12 -1.83145e-11 -1.83568e-11 4.41055e-12 4.38818e-12 -1.83568e-11 -1.82841e-11 -1.83145e-11 -1.83568e-11 7.38e-11 7.39991e-11 -1.83568e-11 -1.82841e-11 7.39991e-11 7.36384e-11 7.38551e-11 7.38997e-11 -2.87412e-10 -2.8752e-10 7.38997e-11 7.38e-11 -2.8752e-10 -2.87251e-10 -2.87412e-10 -2.8752e-10 1.07855e-09 1.07896e-09 -2.8752e-10 -2.87251e-10 1.07896e-09 1.07789e-09 7.38e-11 7.39991e-11 -2.87251e-10 -2.87868e-10 7.39991e-11 7.36384e-11 -2.87868e-10 -2.86614e-10 -2.87251e-10 -2.87868e-10 1.07789e-09 1.0805e-09 -2.87868e-10 -2.86614e-10 1.0805e-09 1.07481e-09 4.38818e-12 4.44924e-12 -1.82841e-11 -1.84438e-11 4.44924e-12 4.26892e-12 -1.84438e-11 -1.80815e-11 -1.82841e-11 -1.84438e-11 7.36384e-11 7.43137e-11 -1.84438e-11 -1.80815e-11 7.43137e-11 7.32747e-11 4.26892e-12 4.44561e-12 -1.80815e-11 -1.88317e-11 4.44561e-12 5.99905e-12 -1.88317e-11 -1.57429e-11 -1.80815e-11 -1.88317e-11 7.32747e-11 7.18586e-11 -1.88317e-11 -1.57429e-11 7.18586e-11 9.09107e-11 7.36384e-11 7.43137e-11 -2.86614e-10 -2.88679e-10 7.43137e-11 7.32747e-11 -2.88679e-10 -2.87884e-10 -2.86614e-10 -2.88679e-10 1.07481e-09 1.08484e-09 -2.88679e-10 -2.87884e-10 1.08484e-09 1.07887e-09 7.32747e-11 7.18586e-11 -2.87884e-10 -2.85564e-10 7.18586e-11 9.09107e-11 -2.85564e-10 -2.32882e-10 -2.87884e-10 -2.85564e-10 1.07887e-09 1.03176e-09 -2.85564e-10 -2.32882e-10 1.03176e-09 1.23944e-09 1.07866e-09 1.07866e-09 -3.84563e-09 -3.84563e-09 1.07866e-09 1.07866e-09 -3.84563e-09 -3.84563e-09 -3.84563e-09 -3.84563e-09 1.29921e-08 1.29921e-08 -3.84563e-09 -3.84563e-09 1.29921e-08 1.29921e-08 1.07866e-09 1.07866e-09 -3.84563e-09 -3.84563e-09 1.07866e-09 1.07866e-09 -3.84563e-09 -3.84563e-09 -3.84563e-09 -3.84563e-09 1.29921e-08 1.29921e-08 -3.84563e-09 -3.84563e-09 1.29921e-08 1.29921e-08 1.29921e-08 1.29921e-08 -3.89056e-08 -3.89056e-08 1.29921e-08 1.29921e-08 -3.89056e-08 -3.89056e-08 -3.89056e-08 -3.89056e-08 9.45785e-08 9.45785e-08 -3.89056e-08 -3.89056e-08 9.45785e-08 9.45785e-08 1.29921e-08 1.29921e-08 -3.89056e-08 -3.89056e-08 1.29921e-08 1.29921e-08 -3.89056e-08 -3.89056e-08 -3.89056e-08 -3.89056e-08 9.45785e-08 9.45785e-08 -3.89056e-08 -3.89056e-08 9.45785e-08 9.45785e-08 1.07866e-09 1.07867e-09 -3.84563e-09 -3.84563e-09 1.07867e-09 1.07865e-09 -3.84563e-09 -3.84561e-09 -3.84563e-09 -3.84563e-09 1.29921e-08 1.29921e-08 -3.84563e-09 -3.84561e-09 1.29921e-08 1.29921e-08 1.07865e-09 1.0787e-09 -3.84561e-09 -3.84569e-09 1.0787e-09 1.07