# vtk DataFile Version 3.0
#This file was generated by the deal.II library on 2022/11/2 at 18:44:05
ASCII
DATASET UNSTRUCTURED_GRID

POINTS 4096 double
0 0.5 0
0.03125 0.5 0
0 0.53125 0
0.03125 0.53125 0
0.03125 0.5 0
0.0625 0.5 0
0.03125 0.53125 0
0.0625 0.53125 0
0 0.53125 0
0.03125 0.53125 0
0 0.5625 0
0.03125 0.5625 0
0.03125 0.53125 0
0.0625 0.53125 0
0.03125 0.5625 0
0.0625 0.5625 0
0.0625 0.5 0
0.09375 0.5 0
0.0625 0.53125 0
0.09375 0.53125 0
0.09375 0.5 0
0.125 0.5 0
0.09375 0.53125 0
0.125 0.53125 0
0.0625 0.53125 0
0.09375 0.53125 0
0.0625 0.5625 0
0.09375 0.5625 0
0.09375 0.53125 0
0.125 0.53125 0
0.09375 0.5625 0
0.125 0.5625 0
0 0.5625 0
0.03125 0.5625 0
0 0.59375 0
0.03125 0.59375 0
0.03125 0.5625 0
0.0625 0.5625 0
0.03125 0.59375 0
0.0625 0.59375 0
0 0.59375 0
0.03125 0.59375 0
0 0.625 0
0.03125 0.625 0
0.03125 0.59375 0
0.0625 0.59375 0
0.03125 0.625 0
0.0625 0.625 0
0.0625 0.5625 0
0.09375 0.5625 0
0.0625 0.59375 0
0.09375 0.59375 0
0.09375 0.5625 0
0.125 0.5625 0
0.09375 0.59375 0
0.125 0.59375 0
0.0625 0.59375 0
0.09375 0.59375 0
0.0625 0.625 0
0.09375 0.625 0
0.09375 0.59375 0
0.125 0.59375 0
0.09375 0.625 0
0.125 0.625 0
0.125 0.5 0
0.15625 0.5 0
0.125 0.53125 0
0.15625 0.53125 0
0.15625 0.5 0
0.1875 0.5 0
0.15625 0.53125 0
0.1875 0.53125 0
0.125 0.53125 0
0.15625 0.53125 0
0.125 0.5625 0
0.15625 0.5625 0
0.15625 0.53125 0
0.1875 0.53125 0
0.15625 0.5625 0
0.1875 0.5625 0
0.1875 0.5 0
0.21875 0.5 0
0.1875 0.53125 0
0.21875 0.53125 0
0.21875 0.5 0
0.25 0.5 0
0.21875 0.53125 0
0.25 0.53125 0
0.1875 0.53125 0
0.21875 0.53125 0
0.1875 0.5625 0
0.21875 0.5625 0
0.21875 0.53125 0
0.25 0.53125 0
0.21875 0.5625 0
0.25 0.5625 0
0.125 0.5625 0
0.15625 0.5625 0
0.125 0.59375 0
0.15625 0.59375 0
0.15625 0.5625 0
0.1875 0.5625 0
0.15625 0.59375 0
0.1875 0.59375 0
0.125 0.59375 0
0.15625 0.59375 0
0.125 0.625 0
0.15625 0.625 0
0.15625 0.59375 0
0.1875 0.59375 0
0.15625 0.625 0
0.1875 0.625 0
0.1875 0.5625 0
0.21875 0.5625 0
0.1875 0.59375 0
0.21875 0.59375 0
0.21875 0.5625 0
0.25 0.5625 0
0.21875 0.59375 0
0.25 0.59375 0
0.1875 0.59375 0
0.21875 0.59375 0
0.1875 0.625 0
0.21875 0.625 0
0.21875 0.59375 0
0.25 0.59375 0
0.21875 0.625 0
0.25 0.625 0
0 0.625 0
0.03125 0.625 0
0 0.65625 0
0.03125 0.65625 0
0.03125 0.625 0
0.0625 0.625 0
0.03125 0.65625 0
0.0625 0.65625 0
0 0.65625 0
0.03125 0.65625 0
0 0.6875 0
0.03125 0.6875 0
0.03125 0.65625 0
0.0625 0.65625 0
0.03125 0.6875 0
0.0625 0.6875 0
0.0625 0.625 0
0.09375 0.625 0
0.0625 0.65625 0
0.09375 0.65625 0
0.09375 0.625 0
0.125 0.625 0
0.09375 0.65625 0
0.125 0.65625 0
0.0625 0.65625 0
0.09375 0.65625 0
0.0625 0.6875 0
0.09375 0.6875 0
0.09375 0.65625 0
0.125 0.65625 0
0.09375 0.6875 0
0.125 0.6875 0
0 0.6875 0
0.03125 0.6875 0
0 0.71875 0
0.03125 0.71875 0
0.03125 0.6875 0
0.0625 0.6875 0
0.03125 0.71875 0
0.0625 0.71875 0
0 0.71875 0
0.03125 0.71875 0
0 0.75 0
0.03125 0.75 0
0.03125 0.71875 0
0.0625 0.71875 0
0.03125 0.75 0
0.0625 0.75 0
0.0625 0.6875 0
0.09375 0.6875 0
0.0625 0.71875 0
0.09375 0.71875 0
0.09375 0.6875 0
0.125 0.6875 0
0.09375 0.71875 0
0.125 0.71875 0
0.0625 0.71875 0
0.09375 0.71875 0
0.0625 0.75 0
0.09375 0.75 0
0.09375 0.71875 0
0.125 0.71875 0
0.09375 0.75 0
0.125 0.75 0
0.125 0.625 0
0.15625 0.625 0
0.125 0.65625 0
0.15625 0.65625 0
0.15625 0.625 0
0.1875 0.625 0
0.15625 0.65625 0
0.1875 0.65625 0
0.125 0.65625 0
0.15625 0.65625 0
0.125 0.6875 0
0.15625 0.6875 0
0.15625 0.65625 0
0.1875 0.65625 0
0.15625 0.6875 0
0.1875 0.6875 0
0.1875 0.625 0
0.21875 0.625 0
0.1875 0.65625 0
0.21875 0.65625 0
0.21875 0.625 0
0.25 0.625 0
0.21875 0.65625 0
0.25 0.65625 0
0.1875 0.65625 0
0.21875 0.65625 0
0.1875 0.6875 0
0.21875 0.6875 0
0.21875 0.65625 0
0.25 0.65625 0
0.21875 0.6875 0
0.25 0.6875 0
0.125 0.6875 0
0.15625 0.6875 0
0.125 0.71875 0
0.15625 0.71875 0
0.15625 0.6875 0
0.1875 0.6875 0
0.15625 0.71875 0
0.1875 0.71875 0
0.125 0.71875 0
0.15625 0.71875 0
0.125 0.75 0
0.15625 0.75 0
0.15625 0.71875 0
0.1875 0.71875 0
0.15625 0.75 0
0.1875 0.75 0
0.1875 0.6875 0
0.21875 0.6875 0
0.1875 0.71875 0
0.21875 0.71875 0
0.21875 0.6875 0
0.25 0.6875 0
0.21875 0.71875 0
0.25 0.71875 0
0.1875 0.71875 0
0.21875 0.71875 0
0.1875 0.75 0
0.21875 0.75 0
0.21875 0.71875 0
0.25 0.71875 0
0.21875 0.75 0
0.25 0.75 0
0.25 0.5 0
0.28125 0.5 0
0.25 0.53125 0
0.28125 0.53125 0
0.28125 0.5 0
0.3125 0.5 0
0.28125 0.53125 0
0.3125 0.53125 0
0.25 0.53125 0
0.28125 0.53125 0
0.25 0.5625 0
0.28125 0.5625 0
0.28125 0.53125 0
0.3125 0.53125 0
0.28125 0.5625 0
0.3125 0.5625 0
0.3125 0.5 0
0.34375 0.5 0
0.3125 0.53125 0
0.34375 0.53125 0
0.34375 0.5 0
0.375 0.5 0
0.34375 0.53125 0
0.375 0.53125 0
0.3125 0.53125 0
0.34375 0.53125 0
0.3125 0.5625 0
0.34375 0.5625 0
0.34375 0.53125 0
0.375 0.53125 0
0.34375 0.5625 0
0.375 0.5625 0
0.25 0.5625 0
0.28125 0.5625 0
0.25 0.59375 0
0.28125 0.59375 0
0.28125 0.5625 0
0.3125 0.5625 0
0.28125 0.59375 0
0.3125 0.59375 0
0.25 0.59375 0
0.28125 0.59375 0
0.25 0.625 0
0.28125 0.625 0
0.28125 0.59375 0
0.3125 0.59375 0
0.28125 0.625 0
0.3125 0.625 0
0.3125 0.5625 0
0.34375 0.5625 0
0.3125 0.59375 0
0.34375 0.59375 0
0.34375 0.5625 0
0.375 0.5625 0
0.34375 0.59375 0
0.375 0.59375 0
0.3125 0.59375 0
0.34375 0.59375 0
0.3125 0.625 0
0.34375 0.625 0
0.34375 0.59375 0
0.375 0.59375 0
0.34375 0.625 0
0.375 0.625 0
0.375 0.5 0
0.40625 0.5 0
0.375 0.53125 0
0.40625 0.53125 0
0.40625 0.5 0
0.4375 0.5 0
0.40625 0.53125 0
0.4375 0.53125 0
0.375 0.53125 0
0.40625 0.53125 0
0.375 0.5625 0
0.40625 0.5625 0
0.40625 0.53125 0
0.4375 0.53125 0
0.40625 0.5625 0
0.4375 0.5625 0
0.4375 0.5 0
0.46875 0.5 0
0.4375 0.53125 0
0.46875 0.53125 0
0.46875 0.5 0
0.5 0.5 0
0.46875 0.53125 0
0.5 0.53125 0
0.4375 0.53125 0
0.46875 0.53125 0
0.4375 0.5625 0
0.46875 0.5625 0
0.46875 0.53125 0
0.5 0.53125 0
0.46875 0.5625 0
0.5 0.5625 0
0.375 0.5625 0
0.40625 0.5625 0
0.375 0.59375 0
0.40625 0.59375 0
0.40625 0.5625 0
0.4375 0.5625 0
0.40625 0.59375 0
0.4375 0.59375 0
0.375 0.59375 0
0.40625 0.59375 0
0.375 0.625 0
0.40625 0.625 0
0.40625 0.59375 0
0.4375 0.59375 0
0.40625 0.625 0
0.4375 0.625 0
0.4375 0.5625 0
0.46875 0.5625 0
0.4375 0.59375 0
0.46875 0.59375 0
0.46875 0.5625 0
0.5 0.5625 0
0.46875 0.59375 0
0.5 0.59375 0
0.4375 0.59375 0
0.46875 0.59375 0
0.4375 0.625 0
0.46875 0.625 0
0.46875 0.59375 0
0.5 0.59375 0
0.46875 0.625 0
0.5 0.625 0
0.25 0.625 0
0.28125 0.625 0
0.25 0.65625 0
0.28125 0.65625 0
0.28125 0.625 0
0.3125 0.625 0
0.28125 0.65625 0
0.3125 0.65625 0
0.25 0.65625 0
0.28125 0.65625 0
0.25 0.6875 0
0.28125 0.6875 0
0.28125 0.65625 0
0.3125 0.65625 0
0.28125 0.6875 0
0.3125 0.6875 0
0.3125 0.625 0
0.34375 0.625 0
0.3125 0.65625 0
0.34375 0.65625 0
0.34375 0.625 0
0.375 0.625 0
0.34375 0.65625 0
0.375 0.65625 0
0.3125 0.65625 0
0.34375 0.65625 0
0.3125 0.6875 0
0.34375 0.6875 0
0.34375 0.65625 0
0.375 0.65625 0
0.34375 0.6875 0
0.375 0.6875 0
0.25 0.6875 0
0.28125 0.6875 0
0.25 0.71875 0
0.28125 0.71875 0
0.28125 0.6875 0
0.3125 0.6875 0
0.28125 0.71875 0
0.3125 0.71875 0
0.25 0.71875 0
0.28125 0.71875 0
0.25 0.75 0
0.28125 0.75 0
0.28125 0.71875 0
0.3125 0.71875 0
0.28125 0.75 0
0.3125 0.75 0
0.3125 0.6875 0
0.34375 0.6875 0
0.3125 0.71875 0
0.34375 0.71875 0
0.34375 0.6875 0
0.375 0.6875 0
0.34375 0.71875 0
0.375 0.71875 0
0.3125 0.71875 0
0.34375 0.71875 0
0.3125 0.75 0
0.34375 0.75 0
0.34375 0.71875 0
0.375 0.71875 0
0.34375 0.75 0
0.375 0.75 0
0.375 0.625 0
0.40625 0.625 0
0.375 0.65625 0
0.40625 0.65625 0
0.40625 0.625 0
0.4375 0.625 0
0.40625 0.65625 0
0.4375 0.65625 0
0.375 0.65625 0
0.40625 0.65625 0
0.375 0.6875 0
0.40625 0.6875 0
0.40625 0.65625 0
0.4375 0.65625 0
0.40625 0.6875 0
0.4375 0.6875 0
0.4375 0.625 0
0.46875 0.625 0
0.4375 0.65625 0
0.46875 0.65625 0
0.46875 0.625 0
0.5 0.625 0
0.46875 0.65625 0
0.5 0.65625 0
0.4375 0.65625 0
0.46875 0.65625 0
0.4375 0.6875 0
0.46875 0.6875 0
0.46875 0.65625 0
0.5 0.65625 0
0.46875 0.6875 0
0.5 0.6875 0
0.375 0.6875 0
0.40625 0.6875 0
0.375 0.71875 0
0.40625 0.71875 0
0.40625 0.6875 0
0.4375 0.6875 0
0.40625 0.71875 0
0.4375 0.71875 0
0.375 0.71875 0
0.40625 0.71875 0
0.375 0.75 0
0.40625 0.75 0
0.40625 0.71875 0
0.4375 0.71875 0
0.40625 0.75 0
0.4375 0.75 0
0.4375 0.6875 0
0.46875 0.6875 0
0.4375 0.71875 0
0.46875 0.71875 0
0.46875 0.6875 0
0.5 0.6875 0
0.46875 0.71875 0
0.5 0.71875 0
0.4375 0.71875 0
0.46875 0.71875 0
0.4375 0.75 0
0.46875 0.75 0
0.46875 0.71875 0
0.5 0.71875 0
0.46875 0.75 0
0.5 0.75 0
0 0.75 0
0.03125 0.75 0
0 0.78125 0
0.03125 0.78125 0
0.03125 0.75 0
0.0625 0.75 0
0.03125 0.78125 0
0.0625 0.78125 0
0 0.78125 0
0.03125 0.78125 0
0 0.8125 0
0.03125 0.8125 0
0.03125 0.78125 0
0.0625 0.78125 0
0.03125 0.8125 0
0.0625 0.8125 0
0.0625 0.75 0
0.09375 0.75 0
0.0625 0.78125 0
0.09375 0.78125 0
0.09375 0.75 0
0.125 0.75 0
0.09375 0.78125 0
0.125 0.78125 0
0.0625 0.78125 0
0.09375 0.78125 0
0.0625 0.8125 0
0.09375 0.8125 0
0.09375 0.78125 0
0.125 0.78125 0
0.09375 0.8125 0
0.125 0.8125 0
0 0.8125 0
0.03125 0.8125 0
0 0.84375 0
0.03125 0.84375 0
0.03125 0.8125 0
0.0625 0.8125 0
0.03125 0.84375 0
0.0625 0.84375 0
0 0.84375 0
0.03125 0.84375 0
0 0.875 0
0.03125 0.875 0
0.03125 0.84375 0
0.0625 0.84375 0
0.03125 0.875 0
0.0625 0.875 0
0.0625 0.8125 0
0.09375 0.8125 0
0.0625 0.84375 0
0.09375 0.84375 0
0.09375 0.8125 0
0.125 0.8125 0
0.09375 0.84375 0
0.125 0.84375 0
0.0625 0.84375 0
0.09375 0.84375 0
0.0625 0.875 0
0.09375 0.875 0
0.09375 0.84375 0
0.125 0.84375 0
0.09375 0.875 0
0.125 0.875 0
0.125 0.75 0
0.15625 0.75 0
0.125 0.78125 0
0.15625 0.78125 0
0.15625 0.75 0
0.1875 0.75 0
0.15625 0.78125 0
0.1875 0.78125 0
0.125 0.78125 0
0.15625 0.78125 0
0.125 0.8125 0
0.15625 0.8125 0
0.15625 0.78125 0
0.1875 0.78125 0
0.15625 0.8125 0
0.1875 0.8125 0
0.1875 0.75 0
0.21875 0.75 0
0.1875 0.78125 0
0.21875 0.78125 0
0.21875 0.75 0
0.25 0.75 0
0.21875 0.78125 0
0.25 0.78125 0
0.1875 0.78125 0
0.21875 0.78125 0
0.1875 0.8125 0
0.21875 0.8125 0
0.21875 0.78125 0
0.25 0.78125 0
0.21875 0.8125 0
0.25 0.8125 0
0.125 0.8125 0
0.15625 0.8125 0
0.125 0.84375 0
0.15625 0.84375 0
0.15625 0.8125 0
[...]
POINT_DATA 4096
SCALARS x_dis double 1
LOOKUP_TABLE default
2.26499e-13 3.40182e-13 -2.40998e-12 -1.65477e-12 3.40182e-13 8.68901e-14 -1.65477e-12 -6.88479e-13 -2.40998e-12 -1.65477e-12 3.92803e-12 5.23527e-12 -1.65477e-12 -6.88479e-13 5.23527e-12 3.74309e-12 8.68901e-14 6.68196e-14 -6.88479e-13 -6.79645e-13 6.68196e-14 1.17765e-13 -6.79645e-13 -8.90598e-13 -6.88479e-13 -6.79645e-13 3.74309e-12 4.12315e-12 -6.79645e-13 -8.90598e-13 4.12315e-12 4.96547e-12 3.92803e-12 5.23527e-12 -3.06959e-11 -2.19924e-11 5.23527e-12 3.74309e-12 -2.19924e-11 -1.64987e-11 -3.06959e-11 -2.19924e-11 3.80233e-11 5.3606e-11 -2.19924e-11 -1.64987e-11 5.3606e-11 6.39628e-11 3.74309e-12 4.12315e-12 -1.64987e-11 -1.79082e-11 4.12315e-12 4.96547e-12 -1.79082e-11 -2.09192e-11 -1.64987e-11 -1.79082e-11 6.39628e-11 7.48457e-11 -1.79082e-11 -2.09192e-11 7.48457e-11 8.34797e-11 1.17765e-13 1.22974e-13 -8.90598e-13 -8.46362e-13 1.22974e-13 1.13132e-13 -8.46362e-13 -8.36916e-13 -8.90598e-13 -8.46362e-13 4.96547e-12 4.69602e-12 -8.46362e-13 -8.36916e-13 4.69602e-12 4.63664e-12 1.13132e-13 1.14981e-13 -8.36916e-13 -8.45344e-13 1.14981e-13 1.15769e-13 -8.45344e-13 -8.43274e-13 -8.36916e-13 -8.45344e-13 4.63664e-12 4.68719e-12 -8.45344e-13 -8.43274e-13 4.68719e-12 4.67442e-12 4.96547e-12 4.69602e-12 -2.09192e-11 -1.95262e-11 4.69602e-12 4.63664e-12 -1.95262e-11 -1.96238e-11 -2.09192e-11 -1.95262e-11 8.34797e-11 7.89499e-11 -1.95262e-11 -1.96238e-11 7.89499e-11 7.90142e-11 4.63664e-12 4.68719e-12 -1.96238e-11 -1.975e-11 4.68719e-12 4.67442e-12 -1.975e-11 -1.96912e-11 -1.96238e-11 -1.975e-11 7.90142e-11 7.94275e-11 -1.975e-11 -1.96912e-11 7.94275e-11 7.92704e-11 3.80233e-11 5.3606e-11 -2.98273e-10 -2.06128e-10 5.3606e-11 6.39628e-11 -2.06128e-10 -2.31207e-10 -2.98273e-10 -2.06128e-10 -6.5373e-11 2.70803e-10 -2.06128e-10 -2.31207e-10 2.70803e-10 7.26312e-10 6.39628e-11 7.48457e-11 -2.31207e-10 -2.61948e-10 7.48457e-11 8.34797e-11 -2.61948e-10 -2.84394e-10 -2.31207e-10 -2.61948e-10 7.26312e-10 8.41142e-10 -2.61948e-10 -2.84394e-10 8.41142e-10 8.67578e-10 -6.5373e-11 2.70803e-10 -1.68083e-09 -8.9092e-10 2.70803e-10 7.26312e-10 -8.9092e-10 -2.01423e-09 -1.68083e-09 -8.9092e-10 -1.0854e-08 -3.87675e-09 -8.9092e-10 -2.01423e-09 -3.87675e-09 3.45586e-09 7.26312e-10 8.41142e-10 -2.01423e-09 -2.28177e-09 8.41142e-10 8.67578e-10 -2.28177e-09 -2.19827e-09 -2.01423e-09 -2.28177e-09 3.45586e-09 3.87773e-09 -2.28177e-09 -2.19827e-09 3.87773e-09 3.18698e-09 8.34797e-11 7.89499e-11 -2.84394e-10 -2.70619e-10 7.89499e-11 7.90142e-11 -2.70619e-10 -2.7221e-10 -2.84394e-10 -2.70619e-10 8.67578e-10 8.34361e-10 -2.70619e-10 -2.7221e-10 8.34361e-10 8.36739e-10 7.90142e-11 7.94275e-11 -2.7221e-10 -2.72994e-10 7.94275e-11 7.92704e-11 -2.72994e-10 -2.7258e-10 -2.7221e-10 -2.72994e-10 8.36739e-10 8.37865e-10 -2.72994e-10 -2.7258e-10 8.37865e-10 8.37374e-10 8.67578e-10 8.34361e-10 -2.19827e-09 -2.16716e-09 8.34361e-10 8.36739e-10 -2.16716e-09 -2.17219e-09 -2.19827e-09 -2.16716e-09 3.18698e-09 3.09305e-09 -2.16716e-09 -2.17219e-09 3.09305e-09 3.11778e-09 8.36739e-10 8.37865e-10 -2.17219e-09 -2.17407e-09 8.37865e-10 8.37374e-10 -2.17407e-09 -2.17304e-09 -2.17219e-09 -2.17407e-09 3.11778e-09 3.11322e-09 -2.17407e-09 -2.17304e-09 3.11322e-09 3.10983e-09 1.15769e-13 1.15166e-13 -8.43274e-13 -8.43327e-13 1.15166e-13 1.15357e-13 -8.43327e-13 -8.43482e-13 -8.43274e-13 -8.43327e-13 4.67442e-12 4.67481e-12 -8.43327e-13 -8.43482e-13 4.67481e-12 4.67547e-12 1.15357e-13 1.1531e-13 -8.43482e-13 -8.43399e-13 1.1531e-13 1.154e-13 -8.43399e-13 -8.43458e-13 -8.43482e-13 -8.43399e-13 4.67547e-12 4.67526e-12 -8.43399e-13 -8.43458e-13 4.67526e-12 4.67537e-12 4.67442e-12 4.67481e-12 -1.96912e-11 -1.9705e-11 4.67481e-12 4.67547e-12 -1.9705e-11 -1.97029e-11 -1.96912e-11 -1.9705e-11 7.92704e-11 7.93033e-11 -1.9705e-11 -1.97029e-11 7.93033e-11 7.92949e-11 4.67547e-12 4.67526e-12 -1.97029e-11 -1.97034e-11 4.67526e-12 4.67537e-12 -1.97034e-11 -1.97032e-11 -1.97029e-11 -1.97034e-11 7.92949e-11 7.92996e-11 -1.97034e-11 -1.97032e-11 7.92996e-11 7.92972e-11 1.154e-13 1.15175e-13 -8.43458e-13 -8.43254e-13 1.15175e-13 1.15313e-13 -8.43254e-13 -8.43568e-13 -8.43458e-13 -8.43254e-13 4.67537e-12 4.6753e-12 -8.43254e-13 -8.43568e-13 4.6753e-12 4.67448e-12 1.15313e-13 1.0993e-13 -8.43568e-13 -8.51848e-13 1.0993e-13 7.64211e-14 -8.51848e-13 -8.46604e-13 -8.43568e-13 -8.51848e-13 4.67448e-12 4.67497e-12 -8.51848e-13 -8.46604e-13 4.67497e-12 4.66878e-12 4.67537e-12 4.6753e-12 -1.97032e-11 -1.97032e-11 4.6753e-12 4.67448e-12 -1.97032e-11 -1.97031e-11 -1.97032e-11 -1.97032e-11 7.92972e-11 7.9298e-11 -1.97032e-11 -1.97031e-11 7.9298e-11 7.92977e-11 4.67448e-12 4.67497e-12 -1.97031e-11 -1.97036e-11 4.67497e-12 4.66878e-12 -1.97036e-11 -1.97032e-11 -1.97031e-11 -1.97036e-11 7.92977e-11 7.92979e-11 -1.97036e-11 -1.97032e-11 7.92979e-11 7.92976e-11 7.92704e-11 7.93033e-11 -2.7258e-10 -2.72683e-10 7.93033e-11 7.92949e-11 -2.72683e-10 -2.72658e-10 -2.7258e-10 -2.72683e-10 8.37374e-10 8.37445e-10 -2.72683e-10 -2.72658e-10 8.37445e-10 8.37407e-10 7.92949e-11 7.92996e-11 -2.72658e-10 -2.72671e-10 7.92996e-11 7.92972e-11 -2.72671e-10 -2.72663e-10 -2.72658e-10 -2.72671e-10 8.37407e-10 8.37445e-10 -2.72671e-10 -2.72663e-10 8.37445e-10 8.37422e-10 8.37374e-10 8.37445e-10 -2.17304e-09 -2.173e-09 8.37445e-10 8.37407e-10 -2.173e-09 -2.17315e-09 -2.17304e-09 -2.173e-09 3.10983e-09 3.11112e-09 -2.173e-09 -2.17315e-09 3.11112e-09 3.11092e-09 8.37407e-10 8.37445e-10 -2.17315e-09 -2.17311e-09 8.37445e-10 8.37422e-10 -2.17311e-09 -2.1731e-09 -2.17315e-09 -2.17311e-09 3.11092e-09 3.11091e-09 -2.17311e-09 -2.1731e-09 3.11091e-09 3.11091e-09 7.92972e-11 7.9298e-11 -2.72663e-10 -2.72666e-10 7.9298e-11 7.92977e-11 -2.72666e-10 -2.72665e-10 -2.72663e-10 -2.72666e-10 8.37422e-10 8.37432e-10 -2.72666e-10 -2.72665e-10 8.37432e-10 8.37429e-10 7.92977e-11 7.92979e-11 -2.72665e-10 -2.72666e-10 7.92979e-11 7.92976e-11 -2.72666e-10 -2.72665e-10 -2.72665e-10 -2.72666e-10 8.37429e-10 8.37429e-10 -2.72666e-10 -2.72665e-10 8.37429e-10 8.37429e-10 8.37422e-10 8.37432e-10 -2.1731e-09 -2.17311e-09 8.37432e-10 8.37429e-10 -2.17311e-09 -2.17311e-09 -2.1731e-09 -2.17311e-09 3.11091e-09 3.11092e-09 -2.17311e-09 -2.17311e-09 3.11092e-09 3.11092e-09 8.37429e-10 8.37429e-10 -2.17311e-09 -2.17311e-09 8.37429e-10 8.37429e-10 -2.17311e-09 -2.17311e-09 -2.17311e-09 -2.17311e-09 3.11092e-09 3.11092e-09 -2.17311e-09 -2.17311e-09 3.11092e-09 3.11092e-09 -1.0854e-08 -3.87675e-09 8.62823e-09 1.50724e-08 -3.87675e-09 3.45586e-09 1.50724e-08 1.71091e-09 8.62823e-09 1.50724e-08 -2.19325e-07 -1.46588e-07 1.50724e-08 1.71091e-09 -1.46588e-07 -7.98403e-08 3.45586e-09 3.87773e-09 1.71091e-09 1.21559e-09 3.87773e-09 3.18698e-09 1.21559e-09 4.09952e-09 1.71091e-09 1.21559e-09 -7.98403e-08 -6.69462e-08 1.21559e-09 4.09952e-09 -6.69462e-08 -8.02856e-08 -2.19325e-07 -1.46588e-07 2.26847e-07 3.3351e-07 -1.46588e-07 -7.98403e-08 3.3351e-07 3.71085e-07 2.26847e-07 3.3351e-07 -2.11271e-06 -1.30485e-06 3.3351e-07 3.71085e-07 -1.30485e-06 -1.38275e-06 -7.98403e-08 -6.69462e-08 3.71085e-07 3.45002e-07 -6.69462e-08 -8.02856e-08 3.45002e-07 3.49407e-07 3.71085e-07 3.45002e-07 -1.38275e-06 -1.21728e-06 3.45002e-07 3.49407e-07 -1.21728e-06 -1.20626e-06 3.18698e-09 3.09305e-09 4.09952e-09 3.73628e-09 3.09305e-09 3.11778e-09 3.73628e-09 3.73622e-09 4.09952e-09 3.73628e-09 -8.02856e-08 -8.04238e-08 3.73628e-09 3.73622e-09 -8.04238e-08 -8.00752e-08 3.11778e-09 3.11322e-09 3.73622e-09 3.70753e-09 3.11322e-09 3.10983e-09 3.70753e-09 3.72225e-09 3.73622e-09 3.70753e-09 -8.00752e-08 -7.99727e-08 3.70753e-09 3.72225e-09 -7.99727e-08 -8.00981e-08 -8.02856e-08 -8.04238e-08 3.49407e-07 3.46417e-07 -8.04238e-08 -8.00752e-08 3.46417e-07 3.48036e-07 3.49407e-07 3.46417e-07 -1.20626e-06 -1.22256e-06 3.46417e-07 3.48036e-07 -1.22256e-06 -1.22766e-06 -8.00752e-08 -7.99727e-08 3.48036e-07 3.47294e-07 -7.99727e-08 -8.00981e-08 3.47294e-07 3.47504e-07 3.48036e-07 3.47294e-07 -1.22766e-06 -1.22357e-06 3.47294e-07 3.47504e-07 -1.22357e-06 -1.22487e-06 -2.11271e-06 -1.30485e-06 -4.06334e-06 -2.59049e-06 -1.30485e-06 -1.38275e-06 -2.59049e-06 1.4712e-06 -4.06334e-06 -2.59049e-06 -9.17759e-06 6.34538e-06 -2.59049e-06 1.4712e-06 6.34538e-06 7.24435e-06 -1.38275e-06 -1.21728e-06 1.4712e-06 2.47589e-06 -1.21728e-06 -1.20626e-06 2.47589e-06 2.50216e-06 1.4712e-06 2.47589e-06 7.24435e-06 8.43024e-06 2.47589e-06 2.50216e-06 8.43024e-06 8.1513e-06 -9.17759e-06 6.34538e-06 -8.94084e-05 -3.22862e-05 6.34538e-06 7.24435e-06 -3.22862e-05 -2.45548e-05 -8.94084e-05 -3.22862e-05 -0.0002 -0.0002 -3.22862e-05 -2.45548e-05 -0.0002 -0.0002 7.24435e-06 8.43024e-06 -2.45548e-05 -2.49832e-05 8.43024e-06 8.1513e-06 -2.49832e-05 -2.53712e-05 -2.45548e-05 -2.49832e-05 -0.0002 -0.0002 -2.49832e-05 -2.53712e-05 -0.0002 -0.0002 -1.20626e-06 -1.22256e-06 2.50216e-06 2.36063e-06 -1.22256e-06 -1.22766e-06 2.36063e-06 2.36807e-06 2.50216e-06 2.36063e-06 8.1513e-06 8.01293e-06 2.36063e-06 2.36807e-06 8.01293e-06 8.08077e-06 -1.22766e-06 -1.22357e-06 2.36807e-06 2.38181e-06 -1.22357e-06 -1.22487e-06 2.38181e-06 2.37514e-06 2.36807e-06 2.38181e-06 8.08077e-06 8.06797e-06 2.38181e-06 2.37514e-06 8.06797e-06 8.06695e-06 8.1513e-06 8.01293e-06 -2.53712e-05 -2.53584e-05 8.01293e-06 8.08077e-06 -2.53584e-05 -2.53533e-05 -2.53712e-05 -2.53584e-05 -0.0002 -0.0002 -2.53584e-05 -2.53533e-05 -0.0002 -0.0002 8.08077e-06 8.06797e-06 -2.53533e-05 -2.53522e-05 8.06797e-06 8.06695e-06 -2.53522e-05 -2.53537e-05 -2.53533e-05 -2.53522e-05 -0.0002 -0.0002 -2.53522e-05 -2.53537e-05 -0.0002 -0.0002 3.10983e-09 3.11112e-09 3.72225e-09 3.72159e-09 3.11112e-09 3.11092e-09 3.72159e-09 3.71893e-09 3.72225e-09 3.72159e-09 -8.00981e-08 -8.0058e-08 3.72159e-09 3.71893e-09 -8.0058e-08 -8.00599e-08 3.11092e-09 3.11091e-09 3.71893e-09 3.72062e-09 3.11091e-09 3.11091e-09 3.72062e-09 3.72001e-09 3.71893e-09 3.72062e-09 -8.00599e-08 -8.00643e-08 3.72062e-09 3.72001e-09 -8.00643e-08 -8.00616e-08 -8.00981e-08 -8.0058e-08 3.47504e-07 3.47493e-07 -8.0058e-08 -8.00599e-08 3.47493e-07 3.4747e-07 3.47504e-07 3.47493e-07 -1.22487e-06 -1.2247e-06 3.47493e-07 3.4747e-07 -1.2247e-06 -1.22465e-06 -8.00599e-08 -8.00643e-08 3.4747e-07 3.47484e-07 -8.00643e-08 -8.00616e-08 3.47484e-07 3.47479e-07 3.4747e-07 3.47484e-07 -1.22465e-06 -1.22469e-06 3.47484e-07 3.47479e-07 -1.22469e-06 -1.22468e-06 3.11091e-09 3.11092e-09 3.72001e-09 3.72014e-09 3.11092e-09 3.11092e-09 3.72014e-09 3.72014e-09 3.72001e-09 3.72014e-09 -8.00616e-08 -8.00626e-08 3.72014e-09 3.72014e-09 -8.00626e-08 -8.00624e-08 3.11092e-09 3.11092e-09 3.72014e-09 3.72013e-09 3.11092e-09 3.11092e-09 3.72013e-09 3.72013e-09 3.72014e-09 3.72013e-09 -8.00624e-08 -8.00624e-08 3.72013e-09 3.72013e-09 -8.00624e-08 -8.00624e-08 -8.00616e-08 -8.00626e-08 3.47479e-07 3.4748e-07 -8.00626e-08 -8.00624e-08 3.4748e-07 3.4748e-07 3.47479e-07 3.4748e-07 -1.22468e-06 -1.22468e-06 3.4748e-07 3.4748e-07 -1.22468e-06 -1.22468e-06 -8.00624e-08 -8.00624e-08 3.4748e-07 3.4748e-07 -8.00624e-08 -8.00624e-08 3.4748e-07 3.4748e-07 3.4748e-07 3.4748e-07 -1.22468e-06 -1.22468e-06 3.4748e-07 3.4748e-07 -1.22468e-06 -1.22468e-06 -1.22487e-06 -1.2247e-06 2.37514e-06 2.37664e-06 -1.2247e-06 -1.22465e-06 2.37664e-06 2.37663e-06 2.37514e-06 2.37664e-06 8.06695e-06 8.0686e-06 2.37664e-06 2.37663e-06 8.0686e-06 8.06792e-06 -1.22465e-06 -1.22469e-06 2.37663e-06 2.37648e-06 -1.22469e-06 -1.22468e-06 2.37648e-06 2.37656e-06 2.37663e-06 2.37648e-06 8.06792e-06 8.0681e-06 2.37648e-06 2.37656e-06 8.0681e-06 8.06807e-06 8.06695e-06 8.0686e-06 -2.53537e-05 -2.53531e-05 8.0686e-06 8.06792e-06 -2.53531e-05 -2.53533e-05 -2.53537e-05 -2.53531e-05 -0.0002 -0.0002 -2.53531e-05 -2.53533e-05 -0.0002 -0.0002 8.06792e-06 8.0681e-06 -2.53533e-05 -2.53533e-05 8.0681e-06 8.06807e-06 -2.53533e-05 -2.53532e-05 -2.53533e-05 -2.53533e-05 -0.0002 -0.0002 -2.53533e-05 -2.53532e-05 -0.0002 -0.0002 -1.22468e-06 -1.22468e-06 2.37656e-06 2.37653e-06 -1.22468e-06 -1.22468e-06 2.37653e-06 2.37654e-06 2.37656e-06 2.37653e-06 8.06807e-06 8.06807e-06 2.37653e-06 2.37654e-06 8.06807e-06 8.06807e-06 -1.22468e-06 -1.22468e-06 2.37654e-06 2.37654e-06 -1.22468e-06 -1.22468e-06 2.37654e-06 2.37654e-06 2.37654e-06 2.37654e-06 8.06807e-06 8.06807e-06 2.37654e-06 2.37654e-06 8.06807e-06 8.06807e-06 8.06807e-06 8.06807e-06 -2.53532e-05 -2.53533e-05 8.06807e-06 8.06807e-06 -2.53533e-05 -2.53533e-05 -2.53532e-05 -2.53533e-05 -0.0002 -0.0002 -2.53533e-05 -2.53533e-05 -0.0002 -0.0002 8.06807e-06 8.06807e-06 -2.53533e-05 -2.53533e-05 8.06807e-06 8.06807e-06 -2.53533e-05 -2.53533e-05 -2.53533e-05 -2.53533e-05 -0.0002 -0.0002 -2.53533e-05 -2.53533e-05 -0.0002 -0.0002 7.64211e-14 2.78627e-13 -8.46604e-13 -8.42861e-13 2.78627e-13 3.02611e-13 -8.42861e-13 -8.76639e-13 -8.46604e-13 -8.42861e-13 4.66878e-12 4.66119e-12 -8.42861e-13 -8.76639e-13 4.66119e-12 4.67334e-12 3.02611e-13 2.74286e-13 -8.76639e-13 -8.64555e-13 2.74286e-13 2.81733e-13 -8.64555e-13 -8.67543e-13 -8.76639e-13 -8.64555e-13 4.67334e-12 4.67176e-12 -8.64555e-13 -8.67543e-13 4.67176e-12 4.67176e-12 4.66878e-12 4.66119e-12 -1.97032e-11 -1.96983e-11 4.66119e-12 4.67334e-12 -1.96983e-11 -1.96997e-11 -1.97032e-11 -1.96983e-11 7.92976e-11 7.92953e-11 -1.96983e-11 -1.96997e-11 7.92953e-11 7.92959e-11 4.67334e-12 4.67176e-12 -1.96997e-11 -1.96993e-11 4.67176e-12 4.67176e-12 -1.96993e-11 -1.96991e-11 -1.96997e-11 -1.96993e-11 7.92959e-11 7.92961e-11 -1.96993e-11 -1.96991e-11 7.92961e-11 7.9296e-11 2.81733e-13 2.79892e-13 -8.67543e-13 -8.67177e-13 2.79892e-13 2.80207e-13 -8.67177e-13 -8.6716e-13 -8.67543e-13 -8.67177e-13 4.67176e-12 4.67186e-12 -8.67177e-13 -8.6716e-13 4.67186e-12 4.67164e-12 2.80207e-13 2.80254e-13 -8.6716e-13 -8.67336e-13 2.80254e-13 2.79805e-13 -8.67336e-13 -8.66275e-13 -8.6716e-13 -8.67336e-13 4.67164e-12 4.67252e-12 -8.67336e-13 -8.66275e-13 4.67252e-12 4.6686e-12 4.67176e-12 4.67186e-12 -1.96991e-11 -1.96994e-11 4.67186e-12 4.67164e-12 -1.96994e-11 -1.9699e-11 -1.96991e-11 -1.96994e-11 7.9296e-11 7.92958e-11 -1.96994e-11 -1.9699e-11 7.92958e-11 7.92955e-11 4.67164e-12 4.67252e-12 -1.9699e-11 -1.97011e-11 4.67252e-12 4.6686e-12 -1.97011e-11 -1.96913e-11 -1.9699e-11 -1.97011e-11 7.92955e-11 7.93001e-11 -1.97011e-11 -1.96913e-11 7.93001e-11 7.92822e-11 7.92976e-11 7.92953e-11 -2.72665e-10 -2.72665e-10 7.92953e-11 7.92959e-11 -2.72665e-10 -2.72665e-10 -2.72665e-10 -2.72665e-10 8.37429e-10 8.37429e-10 -2.72665e-10 -2.72665e-10 8.37429e-10 8.37429e-10 7.92959e-11 7.92961e-11 -2.72665e-10 -2.72665e-10 7.92961e-11 7.9296e-11 -2.72665e-10 -2.72666e-10 -2.72665e-10 -2.72665e-10 8.37429e-10 8.37427e-10 -2.72665e-10 -2.72666e-10 8.37427e-10 8.37435e-10 8.37429e-10 8.37429e-10 -2.17311e-09 -2.17311e-09 8.37429e-10 8.37429e-10 -2.17311e-09 -2.17311e-09 -2.17311e-09 -2.17311e-09 3.11092e-09 3.11092e-09 -2.17311e-09 -2.17311e-09 3.11092e-09 3.11093e-09 8.37429e-10 8.37427e-10 -2.17311e-09 -2.1731e-09 8.37427e-10 8.37435e-10 -2.1731e-09 -2.17313e-09 -2.17311e-09 -2.1731e-09 3.11093e-09 3.1109e-09 -2.1731e-09 -2.17313e-09 3.1109e-09 3.11096e-09 7.9296e-11 7.92958e-11 -2.72666e-10 -2.72662e-10 7.92958e-11 7.92955e-11 -2.72662e-10 -2.72667e-10 -2.72666e-10 -2.72662e-10 8.37435e-10 8.37419e-10 -2.72662e-10 -2.72667e-10 8.37419e-10 8.37435e-10 7.92955e-11 7.93001e-11 -2.72667e-10 -2.72671e-10 7.93001e-11 7.92822e-11 -2.72671e-10 -2.7265e-10 -2.72667e-10 -2.72671e-10 8.37435e-10 8.3745e-10 -2.72671e-10 -2.7265e-10 8.3745e-10 8.374e-10 8.37435e-10 8.37419e-10 -2.17313e-09 -2.17308e-09 8.37419e-10 8.37435e-10 -2.17308e-09 -2.17312e-09 -2.17313e-09 -2.17308e-09 3.11096e-09 3.11089e-09 -2.17308e-09 -2.17312e-09 3.11089e-09 3.11083e-09 8.37435e-10 8.3745e-10 -2.17312e-09 -2.17322e-09 8.3745e-10 8.374e-10 -2.17322e-09 -2.17282e-09 -2.17312e-09 -2.17322e-09 3.11083e-09 3.11138e-09 -2.17322e-09 -2.17282e-09 3.11138e-09 3.1101e-09 2.79805e-13 2.81453e-13 -8.66275e-13 -8.70323e-13 2.81453e-13 2.79052e-13 -8.70323e-13 -8.64354e-13 -8.66275e-13 -8.70323e-13 4.6686e-12 4.67973e-12 -8.70323e-13 -8.64354e-13 4.67973e-12 4.67158e-12 2.79052e-13 2.69461e-13 -8.64354e-13 -8.40581e-13 2.69461e-13 3.28048e-13 -8.40581e-13 -9.84036e-13 -8.64354e-13 -8.40581e-13 4.67158e-12 4.57581e-12 -8.40581e-13 -9.84036e-13 4.57581e-12 4.99693e-12 4.6686e-12 4.67973e-12 -1.96913e-11 -1.97148e-11 4.67973e-12 4.67158e-12 -1.97148e-11 -1.97358e-11 -1.96913e-11 -1.97148e-11 7.92822e-11 7.93076e-11 -1.97148e-11 -1.97358e-11 7.93076e-11 7.94175e-11 4.67158e-12 4.57581e-12 -1.97358e-11 -1.93495e-11 4.57581e-12 4.99693e-12 -1.93495e-11 -2.07177e-11 -1.97358e-11 -1.93495e-11 7.94175e-11 7.85625e-11 -1.93495e-11 -2.07177e-11 7.85625e-11 8.11006e-11 3.28048e-13 2.13348e-13 -9.84036e-13 -7.51988e-13 2.13348e-13 -5.9825e-14 -7.51988e-13 -2.53787e-13 -9.84036e-13 -7.51988e-13 4.99693e-12 4.24429e-12 -7.51988e-13 -2.53787e-13 4.24429e-12 2.73848e-12 -5.9825e-14 7.59425e-13 -2.53787e-13 -1.36954e-12 7.59425e-13 1.45789e-12 -1.36954e-12 -1.50304e-12 -2.53787e-13 -1.36954e-12 2.73848e-12 6.30369e-12 -1.36954e-12 -1.50304e-12 6.30369e-12 1.03293e-11 4.99693e-12 4.24429e-12 -2.07177e-11 -1.94681e-11 4.24429e-12 2.73848e-12 -1.94681e-11 -1.54172e-11 -2.07177e-11 -1.94681e-11 8.11006e-11 7.69093e-11 -1.94681e-11 -1.54172e-11 7.69093e-11 7.12868e-11 2.73848e-12 6.30369e-12 -1.54172e-11 -1.76265e-11 6.30369e-12 1.03293e-11 -1.76265e-11 -1.57625e-11 -1.54172e-11 -1.76265e-11 7.12868e-11 7.39679e-11 -1.76265e-11 -1.57625e-11 7.39679e-11 1.0084e-10 7.92822e-11 7.93076e-11 -2.7265e-10 -2.72568e-10 7.93076e-11 7.94175e-11 -2.72568e-10 -2.73397e-10 -2.7265e-10 -2.72568e-10 8.374e-10 8.37161e-10 -2.72568e-10 -2.73397e-10 8.37161e-10 8.38605e-10 7.94175e-11 7.85625e-11 -2.73397e-10 -2.70629e-10 7.85625e-11 8.11006e-11 -2.70629e-10 -2.73934e-10 -2.73397e-10 -2.70629e-10 8.38605e-10 8.37105e-10 -2.70629e-10 -2.73934e-10 8.37105e-10 8.22871e-10 8.374e-10 8.37161e-10 -2.17282e-09 -2.17262e-09 8.37161e-10 8.38605e-10 -2.17262e-09 -2.17708e-09 -2.17282e-09 -2.17262e-09 3.1101e-09 3.11092e-09 -2.17262e-09 -2.17708e-09 3.11092e-09 3.10973e-09 8.38605e-10 8.37105e-10 -2.17708e-09 -2.17517e-09 8.37105e-10 8.22871e-10 -2.17517e-09 -2.09593e-09 -2.17708e-09 -2.17517e-09 3.10973e-09 3.14917e-09 -2.17517e-09 -2.09593e-09 3.14917e-09 2.87697e-09 8.11006e-11 7.69093e-11 -2.73934e-10 -2.86625e-10 7.69093e-11 7.12868e-11 -2.86625e-10 -2.90917e-10 -2.73934e-10 -2.86625e-10 8.22871e-10 8.60297e-10 -2.86625e-10 -2.90917e-10 8.60297e-10 9.3942e-10 7.12868e-11 7.39679e-11 -2.90917e-10 -1.34162e-10 7.39679e-11 1.0084e-10 -1.34162e-10 -2.52259e-11 -2.90917e-10 -1.34162e-10 9.3942e-10 3.96014e-10 -1.34162e-10 -2.52259e-11 3.96014e-10 5.77769e-10 8.22871e-10 8.60297e-10 -2.09593e-09 -2.45327e-09 8.60297e-10 9.3942e-10 -2.45327e-09 -2.75735e-09 -2.09593e-09 -2.45327e-09 2.87697e-09 3.51668e-09 -2.45327e-09 -2.75735e-09 3.51668e-09 4.27209e-09 9.3942e-10 3.96014e-10 -2.75735e-09 6.82369e-10 3.96014e-10 5.77769e-10 6.82369e-10 2.58754e-09 -2.75735e-09 6.82369e-10 4.27209e-09 -3.79008e-09 6.82369e-10 2.58754e-09 -3.79008e-09 -3.53712e-10 3.11092e-09 3.11092e-09 3.72013e-09 3.72013e-09 3.11092e-09 3.11093e-09 3.72013e-09 3.72013e-09 3.72013e-09 3.72013e-09 -8.00624e-08 -8.00624e-08 3.72013e-09 3.72013e-09 -8.00624e-08 -8.00624e-08 3.11093e-09 3.1109e-09 3.72013e-09 3.72013e-09 3.1109e-09 3.11096e-09 3.72013e-09 3.72014e-09 3.72013e-09 3.72013e-09 -8.00624e-08 -8.00622e-08 3.72013e-09 3.72014e-09 -8.00622e-08 -8.00629e-08 -8.00624e-08 -8.00624e-08 3.4748e-07 3.4748e-07 -8.00624e-08 -8.00624e-08 3.4748e-07 3.4748e-07 3.4748e-07 3.4748e-07 -1.22468e-06 -1.22468e-06 3.4748e-07 3.4748e-07 -1.22468e-06 -1.22468e-06 -8.00624e-08 -8.00622e-08 3.4748e-07 3.4748e-07 -8.00622e-08 -8.00629e-08 3.4748e-07 3.47481e-07 3.4748e-07 3.4748e-07 -1.22468e-06 -1.22468e-06 3.4748e-07 3.47481e-07 -1.22468e-06 -1.22468e-06 3.11096e-09 3.11089e-09 3.72014e-09 3.72013e-09 3.11089e-09 3.11083e-09 3.72013e-09 3.72008e-09 3.72014e-09 3.72013e-09 -8.00629e-08 -8.00613e-08 3.72013e-09 3.72008e-09 -8.00613e-08 -8.00632e-08 3.11083e-09 3.11138e-09 3.72008e-09 3.72036e-09 3.11138e-09 3.1101e-09 3.72036e-09 3.71973e-09 3.72