# vtk DataFile Version 3.0
#This file was generated by the deal.II library on 2022/11/2 at 18:43:44
ASCII
DATASET UNSTRUCTURED_GRID

POINTS 4096 double
0 0.5 0
0.03125 0.5 0
0 0.53125 0
0.03125 0.53125 0
0.03125 0.5 0
0.0625 0.5 0
0.03125 0.53125 0
0.0625 0.53125 0
0 0.53125 0
0.03125 0.53125 0
0 0.5625 0
0.03125 0.5625 0
0.03125 0.53125 0
0.0625 0.53125 0
0.03125 0.5625 0
0.0625 0.5625 0
0.0625 0.5 0
0.09375 0.5 0
0.0625 0.53125 0
0.09375 0.53125 0
0.09375 0.5 0
0.125 0.5 0
0.09375 0.53125 0
0.125 0.53125 0
0.0625 0.53125 0
0.09375 0.53125 0
0.0625 0.5625 0
0.09375 0.5625 0
0.09375 0.53125 0
0.125 0.53125 0
0.09375 0.5625 0
0.125 0.5625 0
0 0.5625 0
0.03125 0.5625 0
0 0.59375 0
0.03125 0.59375 0
0.03125 0.5625 0
0.0625 0.5625 0
0.03125 0.59375 0
0.0625 0.59375 0
0 0.59375 0
0.03125 0.59375 0
0 0.625 0
0.03125 0.625 0
0.03125 0.59375 0
0.0625 0.59375 0
0.03125 0.625 0
0.0625 0.625 0
0.0625 0.5625 0
0.09375 0.5625 0
0.0625 0.59375 0
0.09375 0.59375 0
0.09375 0.5625 0
0.125 0.5625 0
0.09375 0.59375 0
0.125 0.59375 0
0.0625 0.59375 0
0.09375 0.59375 0
0.0625 0.625 0
0.09375 0.625 0
0.09375 0.59375 0
0.125 0.59375 0
0.09375 0.625 0
0.125 0.625 0
0.125 0.5 0
0.15625 0.5 0
0.125 0.53125 0
0.15625 0.53125 0
0.15625 0.5 0
0.1875 0.5 0
0.15625 0.53125 0
0.1875 0.53125 0
0.125 0.53125 0
0.15625 0.53125 0
0.125 0.5625 0
0.15625 0.5625 0
0.15625 0.53125 0
0.1875 0.53125 0
0.15625 0.5625 0
0.1875 0.5625 0
0.1875 0.5 0
0.21875 0.5 0
0.1875 0.53125 0
0.21875 0.53125 0
0.21875 0.5 0
0.25 0.5 0
0.21875 0.53125 0
0.25 0.53125 0
0.1875 0.53125 0
0.21875 0.53125 0
0.1875 0.5625 0
0.21875 0.5625 0
0.21875 0.53125 0
0.25 0.53125 0
0.21875 0.5625 0
0.25 0.5625 0
0.125 0.5625 0
0.15625 0.5625 0
0.125 0.59375 0
0.15625 0.59375 0
0.15625 0.5625 0
0.1875 0.5625 0
0.15625 0.59375 0
0.1875 0.59375 0
0.125 0.59375 0
0.15625 0.59375 0
0.125 0.625 0
0.15625 0.625 0
0.15625 0.59375 0
0.1875 0.59375 0
0.15625 0.625 0
0.1875 0.625 0
0.1875 0.5625 0
0.21875 0.5625 0
0.1875 0.59375 0
0.21875 0.59375 0
0.21875 0.5625 0
0.25 0.5625 0
0.21875 0.59375 0
0.25 0.59375 0
0.1875 0.59375 0
0.21875 0.59375 0
0.1875 0.625 0
0.21875 0.625 0
0.21875 0.59375 0
0.25 0.59375 0
0.21875 0.625 0
0.25 0.625 0
0 0.625 0
0.03125 0.625 0
0 0.65625 0
0.03125 0.65625 0
0.03125 0.625 0
0.0625 0.625 0
0.03125 0.65625 0
0.0625 0.65625 0
0 0.65625 0
0.03125 0.65625 0
0 0.6875 0
0.03125 0.6875 0
0.03125 0.65625 0
0.0625 0.65625 0
0.03125 0.6875 0
0.0625 0.6875 0
0.0625 0.625 0
0.09375 0.625 0
0.0625 0.65625 0
0.09375 0.65625 0
0.09375 0.625 0
0.125 0.625 0
0.09375 0.65625 0
0.125 0.65625 0
0.0625 0.65625 0
0.09375 0.65625 0
0.0625 0.6875 0
0.09375 0.6875 0
0.09375 0.65625 0
0.125 0.65625 0
0.09375 0.6875 0
0.125 0.6875 0
0 0.6875 0
0.03125 0.6875 0
0 0.71875 0
0.03125 0.71875 0
0.03125 0.6875 0
0.0625 0.6875 0
0.03125 0.71875 0
0.0625 0.71875 0
0 0.71875 0
0.03125 0.71875 0
0 0.75 0
0.03125 0.75 0
0.03125 0.71875 0
0.0625 0.71875 0
0.03125 0.75 0
0.0625 0.75 0
0.0625 0.6875 0
0.09375 0.6875 0
0.0625 0.71875 0
0.09375 0.71875 0
0.09375 0.6875 0
0.125 0.6875 0
0.09375 0.71875 0
0.125 0.71875 0
0.0625 0.71875 0
0.09375 0.71875 0
0.0625 0.75 0
0.09375 0.75 0
0.09375 0.71875 0
0.125 0.71875 0
0.09375 0.75 0
0.125 0.75 0
0.125 0.625 0
0.15625 0.625 0
0.125 0.65625 0
0.15625 0.65625 0
0.15625 0.625 0
0.1875 0.625 0
0.15625 0.65625 0
0.1875 0.65625 0
0.125 0.65625 0
0.15625 0.65625 0
0.125 0.6875 0
0.15625 0.6875 0
0.15625 0.65625 0
0.1875 0.65625 0
0.15625 0.6875 0
0.1875 0.6875 0
0.1875 0.625 0
0.21875 0.625 0
0.1875 0.65625 0
0.21875 0.65625 0
0.21875 0.625 0
0.25 0.625 0
0.21875 0.65625 0
0.25 0.65625 0
0.1875 0.65625 0
0.21875 0.65625 0
0.1875 0.6875 0
0.21875 0.6875 0
0.21875 0.65625 0
0.25 0.65625 0
0.21875 0.6875 0
0.25 0.6875 0
0.125 0.6875 0
0.15625 0.6875 0
0.125 0.71875 0
0.15625 0.71875 0
0.15625 0.6875 0
0.1875 0.6875 0
0.15625 0.71875 0
0.1875 0.71875 0
0.125 0.71875 0
0.15625 0.71875 0
0.125 0.75 0
0.15625 0.75 0
0.15625 0.71875 0
0.1875 0.71875 0
0.15625 0.75 0
0.1875 0.75 0
0.1875 0.6875 0
0.21875 0.6875 0
0.1875 0.71875 0
0.21875 0.71875 0
0.21875 0.6875 0
0.25 0.6875 0
0.21875 0.71875 0
0.25 0.71875 0
0.1875 0.71875 0
0.21875 0.71875 0
0.1875 0.75 0
0.21875 0.75 0
0.21875 0.71875 0
0.25 0.71875 0
0.21875 0.75 0
0.25 0.75 0
0.25 0.5 0
0.28125 0.5 0
0.25 0.53125 0
0.28125 0.53125 0
0.28125 0.5 0
0.3125 0.5 0
0.28125 0.53125 0
0.3125 0.53125 0
0.25 0.53125 0
0.28125 0.53125 0
0.25 0.5625 0
0.28125 0.5625 0
0.28125 0.53125 0
0.3125 0.53125 0
0.28125 0.5625 0
0.3125 0.5625 0
0.3125 0.5 0
0.34375 0.5 0
0.3125 0.53125 0
0.34375 0.53125 0
0.34375 0.5 0
0.375 0.5 0
0.34375 0.53125 0
0.375 0.53125 0
0.3125 0.53125 0
0.34375 0.53125 0
0.3125 0.5625 0
0.34375 0.5625 0
0.34375 0.53125 0
0.375 0.53125 0
0.34375 0.5625 0
0.375 0.5625 0
0.25 0.5625 0
0.28125 0.5625 0
0.25 0.59375 0
0.28125 0.59375 0
0.28125 0.5625 0
0.3125 0.5625 0
0.28125 0.59375 0
0.3125 0.59375 0
0.25 0.59375 0
0.28125 0.59375 0
0.25 0.625 0
0.28125 0.625 0
0.28125 0.59375 0
0.3125 0.59375 0
0.28125 0.625 0
0.3125 0.625 0
0.3125 0.5625 0
0.34375 0.5625 0
0.3125 0.59375 0
0.34375 0.59375 0
0.34375 0.5625 0
0.375 0.5625 0
0.34375 0.59375 0
0.375 0.59375 0
0.3125 0.59375 0
0.34375 0.59375 0
0.3125 0.625 0
0.34375 0.625 0
0.34375 0.59375 0
0.375 0.59375 0
0.34375 0.625 0
0.375 0.625 0
0.375 0.5 0
0.40625 0.5 0
0.375 0.53125 0
0.40625 0.53125 0
0.40625 0.5 0
0.4375 0.5 0
0.40625 0.53125 0
0.4375 0.53125 0
0.375 0.53125 0
0.40625 0.53125 0
0.375 0.5625 0
0.40625 0.5625 0
0.40625 0.53125 0
0.4375 0.53125 0
0.40625 0.5625 0
0.4375 0.5625 0
0.4375 0.5 0
0.46875 0.5 0
0.4375 0.53125 0
0.46875 0.53125 0
0.46875 0.5 0
0.5 0.5 0
0.46875 0.53125 0
0.5 0.53125 0
0.4375 0.53125 0
0.46875 0.53125 0
0.4375 0.5625 0
0.46875 0.5625 0
0.46875 0.53125 0
0.5 0.53125 0
0.46875 0.5625 0
0.5 0.5625 0
0.375 0.5625 0
0.40625 0.5625 0
0.375 0.59375 0
0.40625 0.59375 0
0.40625 0.5625 0
0.4375 0.5625 0
0.40625 0.59375 0
0.4375 0.59375 0
0.375 0.59375 0
0.40625 0.59375 0
0.375 0.625 0
0.40625 0.625 0
0.40625 0.59375 0
0.4375 0.59375 0
0.40625 0.625 0
0.4375 0.625 0
0.4375 0.5625 0
0.46875 0.5625 0
0.4375 0.59375 0
0.46875 0.59375 0
0.46875 0.5625 0
0.5 0.5625 0
0.46875 0.59375 0
0.5 0.59375 0
0.4375 0.59375 0
0.46875 0.59375 0
0.4375 0.625 0
0.46875 0.625 0
0.46875 0.59375 0
0.5 0.59375 0
0.46875 0.625 0
0.5 0.625 0
0.25 0.625 0
0.28125 0.625 0
0.25 0.65625 0
0.28125 0.65625 0
0.28125 0.625 0
0.3125 0.625 0
0.28125 0.65625 0
0.3125 0.65625 0
0.25 0.65625 0
0.28125 0.65625 0
0.25 0.6875 0
0.28125 0.6875 0
0.28125 0.65625 0
0.3125 0.65625 0
0.28125 0.6875 0
0.3125 0.6875 0
0.3125 0.625 0
0.34375 0.625 0
0.3125 0.65625 0
0.34375 0.65625 0
0.34375 0.625 0
0.375 0.625 0
0.34375 0.65625 0
0.375 0.65625 0
0.3125 0.65625 0
0.34375 0.65625 0
0.3125 0.6875 0
0.34375 0.6875 0
0.34375 0.65625 0
0.375 0.65625 0
0.34375 0.6875 0
0.375 0.6875 0
0.25 0.6875 0
0.28125 0.6875 0
0.25 0.71875 0
0.28125 0.71875 0
0.28125 0.6875 0
0.3125 0.6875 0
0.28125 0.71875 0
0.3125 0.71875 0
0.25 0.71875 0
0.28125 0.71875 0
0.25 0.75 0
0.28125 0.75 0
0.28125 0.71875 0
0.3125 0.71875 0
0.28125 0.75 0
0.3125 0.75 0
0.3125 0.6875 0
0.34375 0.6875 0
0.3125 0.71875 0
0.34375 0.71875 0
0.34375 0.6875 0
0.375 0.6875 0
0.34375 0.71875 0
0.375 0.71875 0
0.3125 0.71875 0
0.34375 0.71875 0
0.3125 0.75 0
0.34375 0.75 0
0.34375 0.71875 0
0.375 0.71875 0
0.34375 0.75 0
0.375 0.75 0
0.375 0.625 0
0.40625 0.625 0
0.375 0.65625 0
0.40625 0.65625 0
0.40625 0.625 0
0.4375 0.625 0
0.40625 0.65625 0
0.4375 0.65625 0
0.375 0.65625 0
0.40625 0.65625 0
0.375 0.6875 0
0.40625 0.6875 0
0.40625 0.65625 0
0.4375 0.65625 0
0.40625 0.6875 0
0.4375 0.6875 0
0.4375 0.625 0
0.46875 0.625 0
0.4375 0.65625 0
0.46875 0.65625 0
0.46875 0.625 0
0.5 0.625 0
0.46875 0.65625 0
0.5 0.65625 0
0.4375 0.65625 0
0.46875 0.65625 0
0.4375 0.6875 0
0.46875 0.6875 0
0.46875 0.65625 0
0.5 0.65625 0
0.46875 0.6875 0
0.5 0.6875 0
0.375 0.6875 0
0.40625 0.6875 0
0.375 0.71875 0
0.40625 0.71875 0
0.40625 0.6875 0
0.4375 0.6875 0
0.40625 0.71875 0
0.4375 0.71875 0
0.375 0.71875 0
0.40625 0.71875 0
0.375 0.75 0
0.40625 0.75 0
0.40625 0.71875 0
0.4375 0.71875 0
0.40625 0.75 0
0.4375 0.75 0
0.4375 0.6875 0
0.46875 0.6875 0
0.4375 0.71875 0
0.46875 0.71875 0
0.46875 0.6875 0
0.5 0.6875 0
0.46875 0.71875 0
0.5 0.71875 0
0.4375 0.71875 0
0.46875 0.71875 0
0.4375 0.75 0
0.46875 0.75 0
0.46875 0.71875 0
0.5 0.71875 0
0.46875 0.75 0
0.5 0.75 0
0 0.75 0
0.03125 0.75 0
0 0.78125 0
0.03125 0.78125 0
0.03125 0.75 0
0.0625 0.75 0
0.03125 0.78125 0
0.0625 0.78125 0
0 0.78125 0
0.03125 0.78125 0
0 0.8125 0
0.03125 0.8125 0
0.03125 0.78125 0
0.0625 0.78125 0
0.03125 0.8125 0
0.0625 0.8125 0
0.0625 0.75 0
0.09375 0.75 0
0.0625 0.78125 0
0.09375 0.78125 0
0.09375 0.75 0
0.125 0.75 0
0.09375 0.78125 0
0.125 0.78125 0
0.0625 0.78125 0
0.09375 0.78125 0
0.0625 0.8125 0
0.09375 0.8125 0
0.09375 0.78125 0
0.125 0.78125 0
0.09375 0.8125 0
0.125 0.8125 0
0 0.8125 0
0.03125 0.8125 0
0 0.84375 0
0.03125 0.84375 0
0.03125 0.8125 0
0.0625 0.8125 0
0.03125 0.84375 0
0.0625 0.84375 0
0 0.84375 0
0.03125 0.84375 0
0 0.875 0
0.03125 0.875 0
0.03125 0.84375 0
0.0625 0.84375 0
0.03125 0.875 0
0.0625 0.875 0
0.0625 0.8125 0
0.09375 0.8125 0
0.0625 0.84375 0
0.09375 0.84375 0
0.09375 0.8125 0
0.125 0.8125 0
0.09375 0.84375 0
0.125 0.84375 0
0.0625 0.84375 0
0.09375 0.84375 0
0.0625 0.875 0
0.09375 0.875 0
0.09375 0.84375 0
0.125 0.84375 0
0.09375 0.875 0
0.125 0.875 0
0.125 0.75 0
0.15625 0.75 0
0.125 0.78125 0
0.15625 0.78125 0
0.15625 0.75 0
0.1875 0.75 0
0.15625 0.78125 0
0.1875 0.78125 0
0.125 0.78125 0
0.15625 0.78125 0
0.125 0.8125 0
0.15625 0.8125 0
0.15625 0.78125 0
0.1875 0.78125 0
0.15625 0.8125 0
0.1875 0.8125 0
0.1875 0.75 0
0.21875 0.75 0
0.1875 0.78125 0
0.21875 0.78125 0
0.21875 0.75 0
0.25 0.75 0
0.21875 0.78125 0
0.25 0.78125 0
0.1875 0.78125 0
0.21875 0.78125 0
0.1875 0.8125 0
0.21875 0.8125 0
0.21875 0.78125 0
0.25 0.78125 0
0.21875 0.8125 0
0.25 0.8125 0
0.125 0.8125 0
0.15625 0.8125 0
0.125 0.84375 0
0.15625 0.84375 0
0.15625 0.8125 0
[...]
POINT_DATA 4096
SCALARS x_dis double 1
LOOKUP_TABLE default
2.58696e-13 3.49506e-13 -2.02565e-12 -1.47696e-12 3.49506e-13 2.07855e-13 -1.47696e-12 -9.66504e-13 -2.02565e-12 -1.47696e-12 3.2093e-12 4.25574e-12 -1.47696e-12 -9.66504e-13 4.25574e-12 4.10235e-12 2.07855e-13 2.24774e-13 -9.66504e-13 -1.05739e-12 2.24774e-13 2.74482e-13 -1.05739e-12 -1.24566e-12 -9.66504e-13 -1.05739e-12 4.10235e-12 4.69846e-12 -1.05739e-12 -1.24566e-12 4.69846e-12 5.31723e-12 3.2093e-12 4.25574e-12 -2.25353e-11 -1.64277e-11 4.25574e-12 4.10235e-12 -1.64277e-11 -1.56193e-11 -2.25353e-11 -1.64277e-11 1.78861e-11 3.47837e-11 -1.64277e-11 -1.56193e-11 3.47837e-11 5.51064e-11 4.10235e-12 4.69846e-12 -1.56193e-11 -1.75234e-11 4.69846e-12 5.31723e-12 -1.75234e-11 -1.95458e-11 -1.56193e-11 -1.75234e-11 5.51064e-11 6.32209e-11 -1.75234e-11 -1.95458e-11 6.32209e-11 6.76771e-11 2.74482e-13 2.60874e-13 -1.24566e-12 -1.15866e-12 2.60874e-13 2.56761e-13 -1.15866e-12 -1.16554e-12 -1.24566e-12 -1.15866e-12 5.31723e-12 4.98416e-12 -1.15866e-12 -1.16554e-12 4.98416e-12 4.98881e-12 2.56761e-13 2.5936e-13 -1.16554e-12 -1.17281e-12 2.5936e-13 2.5896e-13 -1.17281e-12 -1.16907e-12 -1.16554e-12 -1.17281e-12 4.98881e-12 5.02437e-12 -1.17281e-12 -1.16907e-12 5.02437e-12 5.00975e-12 5.31723e-12 4.98416e-12 -1.95458e-11 -1.82452e-11 4.98416e-12 4.98881e-12 -1.82452e-11 -1.84538e-11 -1.95458e-11 -1.82452e-11 6.76771e-11 6.41537e-11 -1.82452e-11 -1.84538e-11 6.41537e-11 6.45777e-11 4.98881e-12 5.02437e-12 -1.84538e-11 -1.8521e-11 5.02437e-12 5.00975e-12 -1.8521e-11 -1.84737e-11 -1.84538e-11 -1.8521e-11 6.45777e-11 6.474e-11 -1.8521e-11 -1.84737e-11 6.474e-11 6.46459e-11 1.78861e-11 3.47837e-11 -1.79406e-10 -1.1936e-10 3.47837e-11 5.51064e-11 -1.1936e-10 -1.74531e-10 -1.79406e-10 -1.1936e-10 -3.33627e-10 3.81974e-11 -1.1936e-10 -1.74531e-10 3.81974e-11 4.91563e-10 5.51064e-11 6.32209e-11 -1.74531e-10 -1.97561e-10 6.32209e-11 6.76771e-11 -1.97561e-10 -2.04726e-10 -1.74531e-10 -1.97561e-10 4.91563e-10 5.35065e-10 -1.97561e-10 -2.04726e-10 5.35065e-10 5.22844e-10 -3.33627e-10 3.81974e-11 -4.12548e-10 9.2851e-11 3.81974e-11 4.91563e-10 9.2851e-11 -9.97289e-10 -4.12548e-10 9.2851e-11 -1.1778e-08 -5.98794e-09 9.2851e-11 -9.97289e-10 -5.98794e-09 5.03658e-11 4.91563e-10 5.35065e-10 -9.97289e-10 -1.07793e-09 5.35065e-10 5.22844e-10 -1.07793e-09 -9.15897e-10 -9.97289e-10 -1.07793e-09 5.03658e-11 2.05898e-12 -1.07793e-09 -9.15897e-10 2.05898e-12 -8.40435e-10 6.76771e-11 6.41537e-11 -2.04726e-10 -1.96399e-10 6.41537e-11 6.45777e-11 -1.96399e-10 -1.98004e-10 -2.04726e-10 -1.96399e-10 5.22844e-10 5.06815e-10 -1.96399e-10 -1.98004e-10 5.06815e-10 5.09455e-10 6.45777e-11 6.474e-11 -1.98004e-10 -1.98237e-10 6.474e-11 6.46459e-11 -1.98237e-10 -1.98016e-10 -1.98004e-10 -1.98237e-10 5.09455e-10 5.09252e-10 -1.98237e-10 -1.98016e-10 5.09252e-10 5.09153e-10 5.22844e-10 5.06815e-10 -9.15897e-10 -9.23915e-10 5.06815e-10 5.09455e-10 -9.23915e-10 -9.27465e-10 -9.15897e-10 -9.23915e-10 -8.40435e-10 -7.96572e-10 -9.23915e-10 -9.27465e-10 -7.96572e-10 -7.77049e-10 5.09455e-10 5.09252e-10 -9.27465e-10 -9.27109e-10 5.09252e-10 5.09153e-10 -9.27109e-10 -9.26547e-10 -9.27465e-10 -9.27109e-10 -7.77049e-10 -7.87971e-10 -9.27109e-10 -9.26547e-10 -7.87971e-10 -7.8919e-10 2.5896e-13 2.58818e-13 -1.16907e-12 -1.17003e-12 2.58818e-13 2.58917e-13 -1.17003e-12 -1.1699e-12 -1.16907e-12 -1.17003e-12 5.00975e-12 5.01247e-12 -1.17003e-12 -1.1699e-12 5.01247e-12 5.01232e-12 2.58917e-13 2.58875e-13 -1.1699e-12 -1.16989e-12 2.58875e-13 2.58925e-13 -1.16989e-12 -1.1699e-12 -1.1699e-12 -1.16989e-12 5.01232e-12 5.0123e-12 -1.16989e-12 -1.1699e-12 5.0123e-12 5.01229e-12 5.00975e-12 5.01247e-12 -1.84737e-11 -1.84877e-11 5.01247e-12 5.01232e-12 -1.84877e-11 -1.84849e-11 -1.84737e-11 -1.84877e-11 6.46459e-11 6.46703e-11 -1.84877e-11 -1.84849e-11 6.46703e-11 6.46635e-11 5.01232e-12 5.0123e-12 -1.84849e-11 -1.84855e-11 5.0123e-12 5.01229e-12 -1.84855e-11 -1.84852e-11 -1.84849e-11 -1.84855e-11 6.46635e-11 6.46671e-11 -1.84855e-11 -1.84852e-11 6.46671e-11 6.46651e-11 2.58925e-13 2.58915e-13 -1.1699e-12 -1.1698e-12 2.58915e-13 2.58427e-13 -1.1698e-12 -1.16988e-12 -1.1699e-12 -1.1698e-12 5.01229e-12 5.01245e-12 -1.1698e-12 -1.16988e-12 5.01245e-12 5.01142e-12 2.58427e-13 2.56489e-13 -1.16988e-12 -1.17671e-12 2.56489e-13 2.20497e-13 -1.17671e-12 -1.17475e-12 -1.16988e-12 -1.17671e-12 5.01142e-12 5.01264e-12 -1.17671e-12 -1.17475e-12 5.01264e-12 5.00754e-12 5.01229e-12 5.01245e-12 -1.84852e-11 -1.84854e-11 5.01245e-12 5.01142e-12 -1.84854e-11 -1.84851e-11 -1.84852e-11 -1.84854e-11 6.46651e-11 6.4666e-11 -1.84854e-11 -1.84851e-11 6.4666e-11 6.46656e-11 5.01142e-12 5.01264e-12 -1.84851e-11 -1.84859e-11 5.01264e-12 5.00754e-12 -1.84859e-11 -1.84856e-11 -1.84851e-11 -1.84859e-11 6.46656e-11 6.46658e-11 -1.84859e-11 -1.84856e-11 6.46658e-11 6.46656e-11 6.46459e-11 6.46703e-11 -1.98016e-10 -1.98076e-10 6.46703e-11 6.46635e-11 -1.98076e-10 -1.98064e-10 -1.98016e-10 -1.98076e-10 5.09153e-10 5.09162e-10 -1.98076e-10 -1.98064e-10 5.09162e-10 5.0915e-10 6.46635e-11 6.46671e-11 -1.98064e-10 -1.98069e-10 6.46671e-11 6.46651e-11 -1.98069e-10 -1.98066e-10 -1.98064e-10 -1.98069e-10 5.0915e-10 5.09168e-10 -1.98069e-10 -1.98066e-10 5.09168e-10 5.09155e-10 5.09153e-10 5.09162e-10 -9.26547e-10 -9.26621e-10 5.09162e-10 5.0915e-10 -9.26621e-10 -9.26724e-10 -9.26547e-10 -9.26621e-10 -7.8919e-10 -7.87719e-10 -9.26621e-10 -9.26724e-10 -7.87719e-10 -7.88166e-10 5.0915e-10 5.09168e-10 -9.26724e-10 -9.26656e-10 5.09168e-10 5.09155e-10 -9.26656e-10 -9.26677e-10 -9.26724e-10 -9.26656e-10 -7.88166e-10 -7.88138e-10 -9.26656e-10 -9.26677e-10 -7.88138e-10 -7.881e-10 6.46651e-11 6.4666e-11 -1.98066e-10 -1.98068e-10 6.4666e-11 6.46656e-11 -1.98068e-10 -1.98067e-10 -1.98066e-10 -1.98068e-10 5.09155e-10 5.09161e-10 -1.98068e-10 -1.98067e-10 5.09161e-10 5.09159e-10 6.46656e-11 6.46658e-11 -1.98067e-10 -1.98067e-10 6.46658e-11 6.46656e-11 -1.98067e-10 -1.98067e-10 -1.98067e-10 -1.98067e-10 5.09159e-10 5.0916e-10 -1.98067e-10 -1.98067e-10 5.0916e-10 5.0916e-10 5.09155e-10 5.09161e-10 -9.26677e-10 -9.26675e-10 5.09161e-10 5.09159e-10 -9.26675e-10 -9.26673e-10 -9.26677e-10 -9.26675e-10 -7.881e-10 -7.88122e-10 -9.26675e-10 -9.26673e-10 -7.88122e-10 -7.88115e-10 5.09159e-10 5.0916e-10 -9.26673e-10 -9.26675e-10 5.0916e-10 5.0916e-10 -9.26675e-10 -9.26674e-10 -9.26673e-10 -9.26675e-10 -7.88115e-10 -7.88116e-10 -9.26675e-10 -9.26674e-10 -7.88116e-10 -7.88116e-10 -1.1778e-08 -5.98794e-09 1.47912e-08 2.12474e-08 -5.98794e-09 5.03658e-11 2.12474e-08 1.15757e-08 1.47912e-08 2.12474e-08 -1.85473e-07 -1.3592e-07 2.12474e-08 1.15757e-08 -1.3592e-07 -9.26111e-08 5.03658e-11 2.05898e-12 1.15757e-08 1.19065e-08 2.05898e-12 -8.40435e-10 1.19065e-08 1.42511e-08 1.15757e-08 1.19065e-08 -9.26111e-08 -8.3758e-08 1.19065e-08 1.42511e-08 -8.3758e-08 -9.39374e-08 -1.85473e-07 -1.3592e-07 1.62488e-07 2.73575e-07 -1.3592e-07 -9.26111e-08 2.73575e-07 3.64868e-07 1.62488e-07 2.73575e-07 -1.51813e-06 -8.29969e-07 2.73575e-07 3.64868e-07 -8.29969e-07 -1.06967e-06 -9.26111e-08 -8.3758e-08 3.64868e-07 3.43885e-07 -8.3758e-08 -9.39374e-08 3.43885e-07 3.43215e-07 3.64868e-07 3.43885e-07 -1.06967e-06 -1.00176e-06 3.43885e-07 3.43215e-07 -1.00176e-06 -9.94021e-07 -8.40435e-10 -7.96572e-10 1.42511e-08 1.38531e-08 -7.96572e-10 -7.77049e-10 1.38531e-08 1.38417e-08 1.42511e-08 1.38531e-08 -9.39374e-08 -9.38616e-08 1.38531e-08 1.38417e-08 -9.38616e-08 -9.34844e-08 -7.77049e-10 -7.87971e-10 1.38417e-08 1.38264e-08 -7.87971e-10 -7.8919e-10 1.38264e-08 1.3842e-08 1.38417e-08 1.38264e-08 -9.34844e-08 -9.34631e-08 1.38264e-08 1.3842e-08 -9.34631e-08 -9.35625e-08 -9.39374e-08 -9.38616e-08 3.43215e-07 3.4171e-07 -9.38616e-08 -9.34844e-08 3.4171e-07 3.42765e-07 3.43215e-07 3.4171e-07 -9.94021e-07 -1.00562e-06 3.4171e-07 3.42765e-07 -1.00562e-06 -1.00695e-06 -9.34844e-08 -9.34631e-08 3.42765e-07 3.42188e-07 -9.34631e-08 -9.35625e-08 3.42188e-07 3.42396e-07 3.42765e-07 3.42188e-07 -1.00695e-06 -1.00482e-06 3.42188e-07 3.42396e-07 -1.00482e-06 -1.00576e-06 -1.51813e-06 -8.29969e-07 -3.96384e-06 -2.78567e-06 -8.29969e-07 -1.06967e-06 -2.78567e-06 6.47754e-07 -3.96384e-06 -2.78567e-06 -5.65116e-06 6.61485e-06 -2.78567e-06 6.47754e-07 6.61485e-06 8.02136e-06 -1.06967e-06 -1.00176e-06 6.47754e-07 1.49984e-06 -1.00176e-06 -9.94021e-07 1.49984e-06 1.48808e-06 6.47754e-07 1.49984e-06 8.02136e-06 9.06784e-06 1.49984e-06 1.48808e-06 9.06784e-06 8.71939e-06 -5.65116e-06 6.61485e-06 -8.07821e-05 -2.65644e-05 6.61485e-06 8.02136e-06 -2.65644e-05 -2.0273e-05 -8.07821e-05 -2.65644e-05 -0.00019 -0.00019 -2.65644e-05 -2.0273e-05 -0.00019 -0.00019 8.02136e-06 9.06784e-06 -2.0273e-05 -2.09763e-05 9.06784e-06 8.71939e-06 -2.09763e-05 -2.13066e-05 -2.0273e-05 -2.09763e-05 -0.00019 -0.00019 -2.09763e-05 -2.13066e-05 -0.00019 -0.00019 -9.94021e-07 -1.00562e-06 1.48808e-06 1.36106e-06 -1.00562e-06 -1.00695e-06 1.36106e-06 1.37944e-06 1.48808e-06 1.36106e-06 8.71939e-06 8.63251e-06 1.36106e-06 1.37944e-06 8.63251e-06 8.69281e-06 -1.00695e-06 -1.00482e-06 1.37944e-06 1.38722e-06 -1.00482e-06 -1.00576e-06 1.38722e-06 1.38171e-06 1.37944e-06 1.38722e-06 8.69281e-06 8.67667e-06 1.38722e-06 1.38171e-06 8.67667e-06 8.67816e-06 8.71939e-06 8.63251e-06 -2.13066e-05 -2.12691e-05 8.63251e-06 8.69281e-06 -2.12691e-05 -2.12672e-05 -2.13066e-05 -2.12691e-05 -0.00019 -0.00019 -2.12691e-05 -2.12672e-05 -0.00019 -0.00019 8.69281e-06 8.67667e-06 -2.12672e-05 -2.12682e-05 8.67667e-06 8.67816e-06 -2.12682e-05 -2.12685e-05 -2.12672e-05 -2.12682e-05 -0.00019 -0.00019 -2.12682e-05 -2.12685e-05 -0.00019 -0.00019 -7.8919e-10 -7.87719e-10 1.3842e-08 1.38372e-08 -7.87719e-10 -7.88166e-10 1.38372e-08 1.38369e-08 1.3842e-08 1.38372e-08 -9.35625e-08 -9.35173e-08 1.38372e-08 1.38369e-08 -9.35173e-08 -9.3527e-08 -7.88166e-10 -7.88138e-10 1.38369e-08 1.38379e-08 -7.88138e-10 -7.881e-10 1.38379e-08 1.38373e-08 1.38369e-08 1.38379e-08 -9.3527e-08 -9.35276e-08 1.38379e-08 1.38373e-08 -9.35276e-08 -9.35261e-08 -9.35625e-08 -9.35173e-08 3.42396e-07 3.42354e-07 -9.35173e-08 -9.3527e-08 3.42354e-07 3.42351e-07 3.42396e-07 3.42354e-07 -1.00576e-06 -1.00552e-06 3.42354e-07 3.42351e-07 -1.00552e-06 -1.00555e-06 -9.3527e-08 -9.35276e-08 3.42351e-07 3.42358e-07 -9.35276e-08 -9.35261e-08 3.42358e-07 3.42354e-07 3.42351e-07 3.42358e-07 -1.00555e-06 -1.00555e-06 3.42358e-07 3.42354e-07 -1.00555e-06 -1.00555e-06 -7.881e-10 -7.88122e-10 1.38373e-08 1.38375e-08 -7.88122e-10 -7.88115e-10 1.38375e-08 1.38375e-08 1.38373e-08 1.38375e-08 -9.35261e-08 -9.35269e-08 1.38375e-08 1.38375e-08 -9.35269e-08 -9.35266e-08 -7.88115e-10 -7.88116e-10 1.38375e-08 1.38375e-08 -7.88116e-10 -7.88116e-10 1.38375e-08 1.38375e-08 1.38375e-08 1.38375e-08 -9.35266e-08 -9.35267e-08 1.38375e-08 1.38375e-08 -9.35267e-08 -9.35267e-08 -9.35261e-08 -9.35269e-08 3.42354e-07 3.42355e-07 -9.35269e-08 -9.35266e-08 3.42355e-07 3.42355e-07 3.42354e-07 3.42355e-07 -1.00555e-06 -1.00555e-06 3.42355e-07 3.42355e-07 -1.00555e-06 -1.00555e-06 -9.35266e-08 -9.35267e-08 3.42355e-07 3.42355e-07 -9.35267e-08 -9.35267e-08 3.42355e-07 3.42355e-07 3.42355e-07 3.42355e-07 -1.00555e-06 -1.00555e-06 3.42355e-07 3.42355e-07 -1.00555e-06 -1.00555e-06 -1.00576e-06 -1.00552e-06 1.38171e-06 1.38343e-06 -1.00552e-06 -1.00555e-06 1.38343e-06 1.38316e-06 1.38171e-06 1.38343e-06 8.67816e-06 8.67892e-06 1.38343e-06 1.38316e-06 8.67892e-06 8.67844e-06 -1.00555e-06 -1.00555e-06 1.38316e-06 1.38313e-06 -1.00555e-06 -1.00555e-06 1.38313e-06 1.38317e-06 1.38316e-06 1.38313e-06 8.67844e-06 8.6786e-06 1.38313e-06 1.38317e-06 8.6786e-06 8.67856e-06 8.67816e-06 8.67892e-06 -2.12685e-05 -2.12683e-05 8.67892e-06 8.67844e-06 -2.12683e-05 -2.12684e-05 -2.12685e-05 -2.12683e-05 -0.00019 -0.00019 -2.12683e-05 -2.12684e-05 -0.00019 -0.00019 8.67844e-06 8.6786e-06 -2.12684e-05 -2.12683e-05 8.6786e-06 8.67856e-06 -2.12683e-05 -2.12683e-05 -2.12684e-05 -2.12683e-05 -0.00019 -0.00019 -2.12683e-05 -2.12683e-05 -0.00019 -0.00019 -1.00555e-06 -1.00555e-06 1.38317e-06 1.38315e-06 -1.00555e-06 -1.00555e-06 1.38315e-06 1.38316e-06 1.38317e-06 1.38315e-06 8.67856e-06 8.67857e-06 1.38315e-06 1.38316e-06 8.67857e-06 8.67857e-06 -1.00555e-06 -1.00555e-06 1.38316e-06 1.38315e-06 -1.00555e-06 -1.00555e-06 1.38315e-06 1.38315e-06 1.38316e-06 1.38315e-06 8.67857e-06 8.67857e-06 1.38315e-06 1.38315e-06 8.67857e-06 8.67857e-06 8.67856e-06 8.67857e-06 -2.12683e-05 -2.12683e-05 8.67857e-06 8.67857e-06 -2.12683e-05 -2.12683e-05 -2.12683e-05 -2.12683e-05 -0.00019 -0.00019 -2.12683e-05 -2.12683e-05 -0.00019 -0.00019 8.67857e-06 8.67857e-06 -2.12683e-05 -2.12683e-05 8.67857e-06 8.67857e-06 -2.12683e-05 -2.12683e-05 -2.12683e-05 -2.12683e-05 -0.00019 -0.00019 -2.12683e-05 -2.12683e-05 -0.00019 -0.00019 2.20497e-13 6.07648e-13 -1.17475e-12 -1.22873e-12 6.07648e-13 5.59337e-13 -1.22873e-12 -1.24288e-12 -1.17475e-12 -1.22873e-12 5.00754e-12 5.01684e-12 -1.22873e-12 -1.24288e-12 5.01684e-12 5.0251e-12 5.59337e-13 5.49994e-13 -1.24288e-12 -1.23458e-12 5.49994e-13 5.54397e-13 -1.23458e-12 -1.23709e-12 -1.24288e-12 -1.23458e-12 5.0251e-12 5.02333e-12 -1.23458e-12 -1.23709e-12 5.02333e-12 5.02359e-12 5.00754e-12 5.01684e-12 -1.84856e-11 -1.84857e-11 5.01684e-12 5.0251e-12 -1.84857e-11 -1.84868e-11 -1.84856e-11 -1.84857e-11 6.46656e-11 6.46649e-11 -1.84857e-11 -1.84868e-11 6.46649e-11 6.46654e-11 5.0251e-12 5.02333e-12 -1.84868e-11 -1.84862e-11 5.02333e-12 5.02359e-12 -1.84862e-11 -1.84862e-11 -1.84868e-11 -1.84862e-11 6.46654e-11 6.46654e-11 -1.84862e-11 -1.84862e-11 6.46654e-11 6.46655e-11 5.54397e-13 5.52705e-13 -1.23709e-12 -1.23667e-12 5.52705e-13 5.53154e-13 -1.23667e-12 -1.23667e-12 -1.23709e-12 -1.23667e-12 5.02359e-12 5.02358e-12 -1.23667e-12 -1.23667e-12 5.02358e-12 5.0234e-12 5.53154e-13 5.53185e-13 -1.23667e-12 -1.23689e-12 5.53185e-13 5.52656e-13 -1.23689e-12 -1.23594e-12 -1.23667e-12 -1.23689e-12 5.0234e-12 5.02417e-12 -1.23689e-12 -1.23594e-12 5.02417e-12 5.02128e-12 5.02359e-12 5.02358e-12 -1.84862e-11 -1.84863e-11 5.02358e-12 5.0234e-12 -1.84863e-11 -1.84861e-11 -1.84862e-11 -1.84863e-11 6.46655e-11 6.46652e-11 -1.84863e-11 -1.84861e-11 6.46652e-11 6.46651e-11 5.0234e-12 5.02417e-12 -1.84861e-11 -1.84873e-11 5.02417e-12 5.02128e-12 -1.84873e-11 -1.84826e-11 -1.84861e-11 -1.84873e-11 6.46651e-11 6.4668e-11 -1.84873e-11 -1.84826e-11 6.4668e-11 6.46585e-11 6.46656e-11 6.46649e-11 -1.98067e-10 -1.98067e-10 6.46649e-11 6.46654e-11 -1.98067e-10 -1.98067e-10 -1.98067e-10 -1.98067e-10 5.0916e-10 5.09159e-10 -1.98067e-10 -1.98067e-10 5.09159e-10 5.0916e-10 6.46654e-11 6.46654e-11 -1.98067e-10 -1.98066e-10 6.46654e-11 6.46655e-11 -1.98066e-10 -1.98068e-10 -1.98067e-10 -1.98066e-10 5.0916e-10 5.09158e-10 -1.98066e-10 -1.98068e-10 5.09158e-10 5.09163e-10 5.0916e-10 5.09159e-10 -9.26674e-10 -9.26674e-10 5.09159e-10 5.0916e-10 -9.26674e-10 -9.26676e-10 -9.26674e-10 -9.26674e-10 -7.88116e-10 -7.88118e-10 -9.26674e-10 -9.26676e-10 -7.88118e-10 -7.88113e-10 5.0916e-10 5.09158e-10 -9.26676e-10 -9.26669e-10 5.09158e-10 5.09163e-10 -9.26669e-10 -9.26685e-10 -9.26676e-10 -9.26669e-10 -7.88113e-10 -7.88122e-10 -9.26669e-10 -9.26685e-10 -7.88122e-10 -7.88112e-10 6.46655e-11 6.46652e-11 -1.98068e-10 -1.98065e-10 6.46652e-11 6.46651e-11 -1.98065e-10 -1.98069e-10 -1.98068e-10 -1.98065e-10 5.09163e-10 5.09154e-10 -1.98065e-10 -1.98069e-10 5.09154e-10 5.0916e-10 6.46651e-11 6.4668e-11 -1.98069e-10 -1.9807e-10 6.4668e-11 6.46585e-11 -1.9807e-10 -1.98067e-10 -1.98069e-10 -1.9807e-10 5.0916e-10 5.0918e-10 -1.9807e-10 -1.98067e-10 5.0918e-10 5.09131e-10 5.09163e-10 5.09154e-10 -9.26685e-10 -9.2666e-10 5.09154e-10 5.0916e-10 -9.2666e-10 -9.26668e-10 -9.26685e-10 -9.2666e-10 -7.88112e-10 -7.88098e-10 -9.2666e-10 -9.26668e-10 -7.88098e-10 -7.88214e-10 5.0916e-10 5.0918e-10 -9.26668e-10 -9.26767e-10 5.0918e-10 5.09131e-10 -9.26767e-10 -9.26466e-10 -9.26668e-10 -9.26767e-10 -7.88214e-10 -7.87876e-10 -9.26767e-10 -9.26466e-10 -7.87876e-10 -7.88463e-10 5.52656e-13 5.54007e-13 -1.23594e-12 -1.23846e-12 5.54007e-13 5.53892e-13 -1.23846e-12 -1.23815e-12 -1.23594e-12 -1.23846e-12 5.02128e-12 5.02771e-12 -1.23846e-12 -1.23815e-12 5.02771e-12 5.02986e-12 5.53892e-13 5.38879e-13 -1.23815e-12 -1.20864e-12 5.38879e-13 5.96814e-13 -1.20864e-12 -1.32366e-12 -1.23815e-12 -1.20864e-12 5.02986e-12 4.94572e-12 -1.20864e-12 -1.32366e-12 4.94572e-12 5.2367e-12 5.02128e-12 5.02771e-12 -1.84826e-11 -1.84884e-11 5.02771e-12 5.02986e-12 -1.84884e-11 -1.85322e-11 -1.84826e-11 -1.84884e-11 6.46585e-11 6.46629e-11 -1.84884e-11 -1.85322e-11 6.46629e-11 6.47524e-11 5.02986e-12 4.94572e-12 -1.85322e-11 -1.8256e-11 4.94572e-12 5.2367e-12 -1.8256e-11 -1.89786e-11 -1.85322e-11 -1.8256e-11 6.47524e-11 6.43339e-11 -1.8256e-11 -1.89786e-11 6.43339e-11 6.51289e-11 5.96814e-13 5.19462e-13 -1.32366e-12 -1.19459e-12 5.19462e-13 2.73502e-13 -1.19459e-12 -8.32421e-13 -1.32366e-12 -1.19459e-12 5.2367e-12 4.81089e-12 -1.19459e-12 -8.32421e-13 4.81089e-12 3.99412e-12 2.73502e-13 7.62182e-13 -8.32421e-13 -1.30167e-12 7.62182e-13 1.26898e-12 -1.30167e-12 -1.29618e-12 -8.32421e-13 -1.30167e-12 3.99412e-12 5.20481e-12 -1.30167e-12 -1.29618e-12 5.20481e-12 7.45819e-12 5.2367e-12 4.81089e-12 -1.89786e-11 -1.87642e-11 4.81089e-12 3.99412e-12 -1.87642e-11 -1.76329e-11 -1.89786e-11 -1.87642e-11 6.51289e-11 6.41261e-11 -1.87642e-11 -1.76329e-11 6.41261e-11 6.62813e-11 3.99412e-12 5.20481e-12 -1.76329e-11 -1.27848e-11 5.20481e-12 7.45819e-12 -1.27848e-11 -8.29319e-12 -1.76329e-11 -1.27848e-11 6.62813e-11 4.62875e-11 -1.27848e-11 -8.29319e-12 4.62875e-11 5.92875e-11 6.46585e-11 6.46629e-11 -1.98067e-10 -1.97982e-10 6.46629e-11 6.47524e-11 -1.97982e-10 -1.98451e-10 -1.98067e-10 -1.97982e-10 5.09131e-10 5.09052e-10 -1.97982e-10 -1.98451e-10 5.09052e-10 5.09394e-10 6.47524e-11 6.43339e-11 -1.98451e-10 -1.97724e-10 6.43339e-11 6.51289e-11 -1.97724e-10 -1.95389e-10 -1.98451e-10 -1.97724e-10 5.09394e-10 5.11581e-10 -1.97724e-10 -1.95389e-10 5.11581e-10 4.92004e-10 5.09131e-10 5.09052e-10 -9.26466e-10 -9.26625e-10 5.09052e-10 5.09394e-10 -9.26625e-10 -9.27351e-10 -9.26466e-10 -9.26625e-10 -7.88463e-10 -7.8735e-10 -9.26625e-10 -9.27351e-10 -7.8735e-10 -7.95016e-10 5.09394e-10 5.11581e-10 -9.27351e-10 -9.35518e-10 5.11581e-10 4.92004e-10 -9.35518e-10 -8.62151e-10 -9.27351e-10 -9.35518e-10 -7.95016e-10 -7.4682e-10 -9.35518e-10 -8.62151e-10 -7.4682e-10 -9.38389e-10 6.51289e-11 6.41261e-11 -1.95389e-10 -2.1147e-10 6.41261e-11 6.62813e-11 -2.1147e-10 -2.36552e-10 -1.95389e-10 -2.1147e-10 4.92004e-10 5.31777e-10 -2.1147e-10 -2.36552e-10 5.31777e-10 6.32239e-10 6.62813e-11 4.62875e-11 -2.36552e-10 -5.26368e-11 4.62875e-11 5.92875e-11 -5.26368e-11 6.64235e-11 -2.36552e-10 -5.26368e-11 6.32239e-10 6.74475e-11 -5.26368e-11 6.64235e-11 6.74475e-11 1.94052e-10 4.92004e-10 5.31777e-10 -8.62151e-10 -1.11317e-09 5.31777e-10 6.32239e-10 -1.11317e-09 -1.4305e-09 -8.62151e-10 -1.11317e-09 -9.38389e-10 -6.14328e-10 -1.11317e-09 -1.4305e-09 -6.14328e-10 4.53484e-11 6.32239e-10 6.74475e-11 -1.4305e-09 1.28554e-09 6.74475e-11 1.94052e-10 1.28554e-09 2.7912e-09 -1.4305e-09 1.28554e-09 4.53484e-11 -5.2515e-09 1.28554e-09 2.7912e-09 -5.2515e-09 -2.11427e-09 -7.88116e-10 -7.88118e-10 1.38375e-08 1.38375e-08 -7.88118e-10 -7.88113e-10 1.38375e-08 1.38375e-08 1.38375e-08 1.38375e-08 -9.35267e-08 -9.35266e-08 1.38375e-08 1.38375e-08 -9.35266e-08 -9.35267e-08 -7.88113e-10 -7.88122e-10 1.38375e-08 1.38375e-08 -7.88122e-10 -7.88112e-10 1.38375e-08 1.38375e-08 1.38375e-08 1.38375e-08 -9.35267e-08 -9.35265e-08 1.38375e-08 1.38375e-08 -9.35265e-08 -9.3527e-08 -9.35267e-08 -9.35266e-08 3.42355e-07 3.42355e-07 -9.35266e-08 -9.35267e-08 3.42355e-07 3.42355e-07 3.42355e-07 3.42355e-07 -1.00555e-06 -1.00555e-06 3.42355e-07 3.42355e-07 -1.00555e-06 -1.00555e-06 -9.35267e-08 -9.35265e-08 3.42355e-07 3.42355e-07 -9.35265e-08 -9.3527e-08 3.42355e-07 3.42355e-07 3.42355e-07 3.42355e-07 -1.00555e-06 -1.00555e-06 3.42355e-07 3.42355e-07 -1.00555e-06 -1.00555e-06 -7.88112e-10 -7.88098e-10 1.38375e-08 1.38375e-08 -7.88098e-10 -7.88214e-10 1.38375e-08 1.38372e-08 1.38375e-08 1.38375e-08 -9.3527e-08 -9.35263e-08 1.38375e-08 1.38372e-08 -