# vtk DataFile Version 3.0
#This file was generated by the deal.II library on 2022/11/2 at 18:41:25
ASCII
DATASET UNSTRUCTURED_GRID

POINTS 4096 double
0 0.5 0
0.03125 0.5 0
0 0.53125 0
0.03125 0.53125 0
0.03125 0.5 0
0.0625 0.5 0
0.03125 0.53125 0
0.0625 0.53125 0
0 0.53125 0
0.03125 0.53125 0
0 0.5625 0
0.03125 0.5625 0
0.03125 0.53125 0
0.0625 0.53125 0
0.03125 0.5625 0
0.0625 0.5625 0
0.0625 0.5 0
0.09375 0.5 0
0.0625 0.53125 0
0.09375 0.53125 0
0.09375 0.5 0
0.125 0.5 0
0.09375 0.53125 0
0.125 0.53125 0
0.0625 0.53125 0
0.09375 0.53125 0
0.0625 0.5625 0
0.09375 0.5625 0
0.09375 0.53125 0
0.125 0.53125 0
0.09375 0.5625 0
0.125 0.5625 0
0 0.5625 0
0.03125 0.5625 0
0 0.59375 0
0.03125 0.59375 0
0.03125 0.5625 0
0.0625 0.5625 0
0.03125 0.59375 0
0.0625 0.59375 0
0 0.59375 0
0.03125 0.59375 0
0 0.625 0
0.03125 0.625 0
0.03125 0.59375 0
0.0625 0.59375 0
0.03125 0.625 0
0.0625 0.625 0
0.0625 0.5625 0
0.09375 0.5625 0
0.0625 0.59375 0
0.09375 0.59375 0
0.09375 0.5625 0
0.125 0.5625 0
0.09375 0.59375 0
0.125 0.59375 0
0.0625 0.59375 0
0.09375 0.59375 0
0.0625 0.625 0
0.09375 0.625 0
0.09375 0.59375 0
0.125 0.59375 0
0.09375 0.625 0
0.125 0.625 0
0.125 0.5 0
0.15625 0.5 0
0.125 0.53125 0
0.15625 0.53125 0
0.15625 0.5 0
0.1875 0.5 0
0.15625 0.53125 0
0.1875 0.53125 0
0.125 0.53125 0
0.15625 0.53125 0
0.125 0.5625 0
0.15625 0.5625 0
0.15625 0.53125 0
0.1875 0.53125 0
0.15625 0.5625 0
0.1875 0.5625 0
0.1875 0.5 0
0.21875 0.5 0
0.1875 0.53125 0
0.21875 0.53125 0
0.21875 0.5 0
0.25 0.5 0
0.21875 0.53125 0
0.25 0.53125 0
0.1875 0.53125 0
0.21875 0.53125 0
0.1875 0.5625 0
0.21875 0.5625 0
0.21875 0.53125 0
0.25 0.53125 0
0.21875 0.5625 0
0.25 0.5625 0
0.125 0.5625 0
0.15625 0.5625 0
0.125 0.59375 0
0.15625 0.59375 0
0.15625 0.5625 0
0.1875 0.5625 0
0.15625 0.59375 0
0.1875 0.59375 0
0.125 0.59375 0
0.15625 0.59375 0
0.125 0.625 0
0.15625 0.625 0
0.15625 0.59375 0
0.1875 0.59375 0
0.15625 0.625 0
0.1875 0.625 0
0.1875 0.5625 0
0.21875 0.5625 0
0.1875 0.59375 0
0.21875 0.59375 0
0.21875 0.5625 0
0.25 0.5625 0
0.21875 0.59375 0
0.25 0.59375 0
0.1875 0.59375 0
0.21875 0.59375 0
0.1875 0.625 0
0.21875 0.625 0
0.21875 0.59375 0
0.25 0.59375 0
0.21875 0.625 0
0.25 0.625 0
0 0.625 0
0.03125 0.625 0
0 0.65625 0
0.03125 0.65625 0
0.03125 0.625 0
0.0625 0.625 0
0.03125 0.65625 0
0.0625 0.65625 0
0 0.65625 0
0.03125 0.65625 0
0 0.6875 0
0.03125 0.6875 0
0.03125 0.65625 0
0.0625 0.65625 0
0.03125 0.6875 0
0.0625 0.6875 0
0.0625 0.625 0
0.09375 0.625 0
0.0625 0.65625 0
0.09375 0.65625 0
0.09375 0.625 0
0.125 0.625 0
0.09375 0.65625 0
0.125 0.65625 0
0.0625 0.65625 0
0.09375 0.65625 0
0.0625 0.6875 0
0.09375 0.6875 0
0.09375 0.65625 0
0.125 0.65625 0
0.09375 0.6875 0
0.125 0.6875 0
0 0.6875 0
0.03125 0.6875 0
0 0.71875 0
0.03125 0.71875 0
0.03125 0.6875 0
0.0625 0.6875 0
0.03125 0.71875 0
0.0625 0.71875 0
0 0.71875 0
0.03125 0.71875 0
0 0.75 0
0.03125 0.75 0
0.03125 0.71875 0
0.0625 0.71875 0
0.03125 0.75 0
0.0625 0.75 0
0.0625 0.6875 0
0.09375 0.6875 0
0.0625 0.71875 0
0.09375 0.71875 0
0.09375 0.6875 0
0.125 0.6875 0
0.09375 0.71875 0
0.125 0.71875 0
0.0625 0.71875 0
0.09375 0.71875 0
0.0625 0.75 0
0.09375 0.75 0
0.09375 0.71875 0
0.125 0.71875 0
0.09375 0.75 0
0.125 0.75 0
0.125 0.625 0
0.15625 0.625 0
0.125 0.65625 0
0.15625 0.65625 0
0.15625 0.625 0
0.1875 0.625 0
0.15625 0.65625 0
0.1875 0.65625 0
0.125 0.65625 0
0.15625 0.65625 0
0.125 0.6875 0
0.15625 0.6875 0
0.15625 0.65625 0
0.1875 0.65625 0
0.15625 0.6875 0
0.1875 0.6875 0
0.1875 0.625 0
0.21875 0.625 0
0.1875 0.65625 0
0.21875 0.65625 0
0.21875 0.625 0
0.25 0.625 0
0.21875 0.65625 0
0.25 0.65625 0
0.1875 0.65625 0
0.21875 0.65625 0
0.1875 0.6875 0
0.21875 0.6875 0
0.21875 0.65625 0
0.25 0.65625 0
0.21875 0.6875 0
0.25 0.6875 0
0.125 0.6875 0
0.15625 0.6875 0
0.125 0.71875 0
0.15625 0.71875 0
0.15625 0.6875 0
0.1875 0.6875 0
0.15625 0.71875 0
0.1875 0.71875 0
0.125 0.71875 0
0.15625 0.71875 0
0.125 0.75 0
0.15625 0.75 0
0.15625 0.71875 0
0.1875 0.71875 0
0.15625 0.75 0
0.1875 0.75 0
0.1875 0.6875 0
0.21875 0.6875 0
0.1875 0.71875 0
0.21875 0.71875 0
0.21875 0.6875 0
0.25 0.6875 0
0.21875 0.71875 0
0.25 0.71875 0
0.1875 0.71875 0
0.21875 0.71875 0
0.1875 0.75 0
0.21875 0.75 0
0.21875 0.71875 0
0.25 0.71875 0
0.21875 0.75 0
0.25 0.75 0
0.25 0.5 0
0.28125 0.5 0
0.25 0.53125 0
0.28125 0.53125 0
0.28125 0.5 0
0.3125 0.5 0
0.28125 0.53125 0
0.3125 0.53125 0
0.25 0.53125 0
0.28125 0.53125 0
0.25 0.5625 0
0.28125 0.5625 0
0.28125 0.53125 0
0.3125 0.53125 0
0.28125 0.5625 0
0.3125 0.5625 0
0.3125 0.5 0
0.34375 0.5 0
0.3125 0.53125 0
0.34375 0.53125 0
0.34375 0.5 0
0.375 0.5 0
0.34375 0.53125 0
0.375 0.53125 0
0.3125 0.53125 0
0.34375 0.53125 0
0.3125 0.5625 0
0.34375 0.5625 0
0.34375 0.53125 0
0.375 0.53125 0
0.34375 0.5625 0
0.375 0.5625 0
0.25 0.5625 0
0.28125 0.5625 0
0.25 0.59375 0
0.28125 0.59375 0
0.28125 0.5625 0
0.3125 0.5625 0
0.28125 0.59375 0
0.3125 0.59375 0
0.25 0.59375 0
0.28125 0.59375 0
0.25 0.625 0
0.28125 0.625 0
0.28125 0.59375 0
0.3125 0.59375 0
0.28125 0.625 0
0.3125 0.625 0
0.3125 0.5625 0
0.34375 0.5625 0
0.3125 0.59375 0
0.34375 0.59375 0
0.34375 0.5625 0
0.375 0.5625 0
0.34375 0.59375 0
0.375 0.59375 0
0.3125 0.59375 0
0.34375 0.59375 0
0.3125 0.625 0
0.34375 0.625 0
0.34375 0.59375 0
0.375 0.59375 0
0.34375 0.625 0
0.375 0.625 0
0.375 0.5 0
0.40625 0.5 0
0.375 0.53125 0
0.40625 0.53125 0
0.40625 0.5 0
0.4375 0.5 0
0.40625 0.53125 0
0.4375 0.53125 0
0.375 0.53125 0
0.40625 0.53125 0
0.375 0.5625 0
0.40625 0.5625 0
0.40625 0.53125 0
0.4375 0.53125 0
0.40625 0.5625 0
0.4375 0.5625 0
0.4375 0.5 0
0.46875 0.5 0
0.4375 0.53125 0
0.46875 0.53125 0
0.46875 0.5 0
0.5 0.5 0
0.46875 0.53125 0
0.5 0.53125 0
0.4375 0.53125 0
0.46875 0.53125 0
0.4375 0.5625 0
0.46875 0.5625 0
0.46875 0.53125 0
0.5 0.53125 0
0.46875 0.5625 0
0.5 0.5625 0
0.375 0.5625 0
0.40625 0.5625 0
0.375 0.59375 0
0.40625 0.59375 0
0.40625 0.5625 0
0.4375 0.5625 0
0.40625 0.59375 0
0.4375 0.59375 0
0.375 0.59375 0
0.40625 0.59375 0
0.375 0.625 0
0.40625 0.625 0
0.40625 0.59375 0
0.4375 0.59375 0
0.40625 0.625 0
0.4375 0.625 0
0.4375 0.5625 0
0.46875 0.5625 0
0.4375 0.59375 0
0.46875 0.59375 0
0.46875 0.5625 0
0.5 0.5625 0
0.46875 0.59375 0
0.5 0.59375 0
0.4375 0.59375 0
0.46875 0.59375 0
0.4375 0.625 0
0.46875 0.625 0
0.46875 0.59375 0
0.5 0.59375 0
0.46875 0.625 0
0.5 0.625 0
0.25 0.625 0
0.28125 0.625 0
0.25 0.65625 0
0.28125 0.65625 0
0.28125 0.625 0
0.3125 0.625 0
0.28125 0.65625 0
0.3125 0.65625 0
0.25 0.65625 0
0.28125 0.65625 0
0.25 0.6875 0
0.28125 0.6875 0
0.28125 0.65625 0
0.3125 0.65625 0
0.28125 0.6875 0
0.3125 0.6875 0
0.3125 0.625 0
0.34375 0.625 0
0.3125 0.65625 0
0.34375 0.65625 0
0.34375 0.625 0
0.375 0.625 0
0.34375 0.65625 0
0.375 0.65625 0
0.3125 0.65625 0
0.34375 0.65625 0
0.3125 0.6875 0
0.34375 0.6875 0
0.34375 0.65625 0
0.375 0.65625 0
0.34375 0.6875 0
0.375 0.6875 0
0.25 0.6875 0
0.28125 0.6875 0
0.25 0.71875 0
0.28125 0.71875 0
0.28125 0.6875 0
0.3125 0.6875 0
0.28125 0.71875 0
0.3125 0.71875 0
0.25 0.71875 0
0.28125 0.71875 0
0.25 0.75 0
0.28125 0.75 0
0.28125 0.71875 0
0.3125 0.71875 0
0.28125 0.75 0
0.3125 0.75 0
0.3125 0.6875 0
0.34375 0.6875 0
0.3125 0.71875 0
0.34375 0.71875 0
0.34375 0.6875 0
0.375 0.6875 0
0.34375 0.71875 0
0.375 0.71875 0
0.3125 0.71875 0
0.34375 0.71875 0
0.3125 0.75 0
0.34375 0.75 0
0.34375 0.71875 0
0.375 0.71875 0
0.34375 0.75 0
0.375 0.75 0
0.375 0.625 0
0.40625 0.625 0
0.375 0.65625 0
0.40625 0.65625 0
0.40625 0.625 0
0.4375 0.625 0
0.40625 0.65625 0
0.4375 0.65625 0
0.375 0.65625 0
0.40625 0.65625 0
0.375 0.6875 0
0.40625 0.6875 0
0.40625 0.65625 0
0.4375 0.65625 0
0.40625 0.6875 0
0.4375 0.6875 0
0.4375 0.625 0
0.46875 0.625 0
0.4375 0.65625 0
0.46875 0.65625 0
0.46875 0.625 0
0.5 0.625 0
0.46875 0.65625 0
0.5 0.65625 0
0.4375 0.65625 0
0.46875 0.65625 0
0.4375 0.6875 0
0.46875 0.6875 0
0.46875 0.65625 0
0.5 0.65625 0
0.46875 0.6875 0
0.5 0.6875 0
0.375 0.6875 0
0.40625 0.6875 0
0.375 0.71875 0
0.40625 0.71875 0
0.40625 0.6875 0
0.4375 0.6875 0
0.40625 0.71875 0
0.4375 0.71875 0
0.375 0.71875 0
0.40625 0.71875 0
0.375 0.75 0
0.40625 0.75 0
0.40625 0.71875 0
0.4375 0.71875 0
0.40625 0.75 0
0.4375 0.75 0
0.4375 0.6875 0
0.46875 0.6875 0
0.4375 0.71875 0
0.46875 0.71875 0
0.46875 0.6875 0
0.5 0.6875 0
0.46875 0.71875 0
0.5 0.71875 0
0.4375 0.71875 0
0.46875 0.71875 0
0.4375 0.75 0
0.46875 0.75 0
0.46875 0.71875 0
0.5 0.71875 0
0.46875 0.75 0
0.5 0.75 0
0 0.75 0
0.03125 0.75 0
0 0.78125 0
0.03125 0.78125 0
0.03125 0.75 0
0.0625 0.75 0
0.03125 0.78125 0
0.0625 0.78125 0
0 0.78125 0
0.03125 0.78125 0
0 0.8125 0
0.03125 0.8125 0
0.03125 0.78125 0
0.0625 0.78125 0
0.03125 0.8125 0
0.0625 0.8125 0
0.0625 0.75 0
0.09375 0.75 0
0.0625 0.78125 0
0.09375 0.78125 0
0.09375 0.75 0
0.125 0.75 0
0.09375 0.78125 0
0.125 0.78125 0
0.0625 0.78125 0
0.09375 0.78125 0
0.0625 0.8125 0
0.09375 0.8125 0
0.09375 0.78125 0
0.125 0.78125 0
0.09375 0.8125 0
0.125 0.8125 0
0 0.8125 0
0.03125 0.8125 0
0 0.84375 0
0.03125 0.84375 0
0.03125 0.8125 0
0.0625 0.8125 0
0.03125 0.84375 0
0.0625 0.84375 0
0 0.84375 0
0.03125 0.84375 0
0 0.875 0
0.03125 0.875 0
0.03125 0.84375 0
0.0625 0.84375 0
0.03125 0.875 0
0.0625 0.875 0
0.0625 0.8125 0
0.09375 0.8125 0
0.0625 0.84375 0
0.09375 0.84375 0
0.09375 0.8125 0
0.125 0.8125 0
0.09375 0.84375 0
0.125 0.84375 0
0.0625 0.84375 0
0.09375 0.84375 0
0.0625 0.875 0
0.09375 0.875 0
0.09375 0.84375 0
0.125 0.84375 0
0.09375 0.875 0
0.125 0.875 0
0.125 0.75 0
0.15625 0.75 0
0.125 0.78125 0
0.15625 0.78125 0
0.15625 0.75 0
0.1875 0.75 0
0.15625 0.78125 0
0.1875 0.78125 0
0.125 0.78125 0
0.15625 0.78125 0
0.125 0.8125 0
0.15625 0.8125 0
0.15625 0.78125 0
0.1875 0.78125 0
0.15625 0.8125 0
0.1875 0.8125 0
0.1875 0.75 0
0.21875 0.75 0
0.1875 0.78125 0
0.21875 0.78125 0
0.21875 0.75 0
0.25 0.75 0
0.21875 0.78125 0
0.25 0.78125 0
0.1875 0.78125 0
0.21875 0.78125 0
0.1875 0.8125 0
0.21875 0.8125 0
0.21875 0.78125 0
0.25 0.78125 0
0.21875 0.8125 0
0.25 0.8125 0
0.125 0.8125 0
0.15625 0.8125 0
0.125 0.84375 0
0.15625 0.84375 0
0.15625 0.8125 0
[...]
POINT_DATA 4096
SCALARS x_dis double 1
LOOKUP_TABLE default
-1.11511e-13 -8.31509e-14 2.44329e-13 3.22851e-13 -8.31509e-14 -4.75587e-14 3.22851e-13 2.32311e-13 2.44329e-13 3.22851e-13 -1.60288e-12 -1.28719e-12 3.22851e-13 2.32311e-13 -1.28719e-12 -9.83e-13 -4.75587e-14 -6.38878e-14 2.32311e-13 2.76237e-13 -6.38878e-14 -6.66894e-14 2.76237e-13 2.89351e-13 2.32311e-13 2.76237e-13 -9.83e-13 -1.13213e-12 2.76237e-13 2.89351e-13 -1.13213e-12 -1.19764e-12 -1.60288e-12 -1.28719e-12 3.32401e-12 4.48681e-12 -1.28719e-12 -9.83e-13 4.48681e-12 4.12372e-12 3.32401e-12 4.48681e-12 -1.9839e-11 -1.65171e-11 4.48681e-12 4.12372e-12 -1.65171e-11 -1.56723e-11 -9.83e-13 -1.13213e-12 4.12372e-12 4.38928e-12 -1.13213e-12 -1.19764e-12 4.38928e-12 4.60458e-12 4.12372e-12 4.38928e-12 -1.56723e-11 -1.62625e-11 4.38928e-12 4.60458e-12 -1.62625e-11 -1.7272e-11 -6.66894e-14 -6.27029e-14 2.89351e-13 2.75338e-13 -6.27029e-14 -6.47833e-14 2.75338e-13 2.81501e-13 2.89351e-13 2.75338e-13 -1.19764e-12 -1.13821e-12 2.75338e-13 2.81501e-13 -1.13821e-12 -1.16443e-12 -6.47833e-14 -6.40369e-14 2.81501e-13 2.79722e-13 -6.40369e-14 -6.42245e-14 2.79722e-13 2.80045e-13 2.81501e-13 2.79722e-13 -1.16443e-12 -1.15733e-12 2.79722e-13 2.80045e-13 -1.15733e-12 -1.15813e-12 -1.19764e-12 -1.13821e-12 4.60458e-12 4.43962e-12 -1.13821e-12 -1.16443e-12 4.43962e-12 4.50293e-12 4.60458e-12 4.43962e-12 -1.7272e-11 -1.66385e-11 4.43962e-12 4.50293e-12 -1.66385e-11 -1.68696e-11 -1.16443e-12 -1.15733e-12 4.50293e-12 4.48914e-12 -1.15733e-12 -1.15813e-12 4.48914e-12 4.4896e-12 4.50293e-12 4.48914e-12 -1.68696e-11 -1.68277e-11 4.48914e-12 4.4896e-12 -1.68277e-11 -1.68227e-11 -1.9839e-11 -1.65171e-11 3.22981e-11 4.95663e-11 -1.65171e-11 -1.56723e-11 4.95663e-11 5.90929e-11 3.22981e-11 4.95663e-11 -1.98317e-10 -1.57309e-10 4.95663e-11 5.90929e-11 -1.57309e-10 -1.95861e-10 -1.56723e-11 -1.62625e-11 5.90929e-11 5.68092e-11 -1.62625e-11 -1.7272e-11 5.68092e-11 5.92527e-11 5.90929e-11 5.68092e-11 -1.95861e-10 -1.85074e-10 5.68092e-11 5.92527e-11 -1.85074e-10 -1.94535e-10 -1.98317e-10 -1.57309e-10 7.60179e-11 3.27376e-10 -1.57309e-10 -1.95861e-10 3.27376e-10 6.35174e-10 7.60179e-11 3.27376e-10 -1.30513e-09 -5.15643e-10 3.27376e-10 6.35174e-10 -5.15643e-10 -1.54206e-09 -1.95861e-10 -1.85074e-10 6.35174e-10 5.41779e-10 -1.85074e-10 -1.94535e-10 5.41779e-10 5.50989e-10 6.35174e-10 5.41779e-10 -1.54206e-09 -1.31482e-09 5.41779e-10 5.50989e-10 -1.31482e-09 -1.32432e-09 -1.7272e-11 -1.66385e-11 5.92527e-11 5.79409e-11 -1.66385e-11 -1.68696e-11 5.79409e-11 5.82761e-11 5.92527e-11 5.79409e-11 -1.94535e-10 -1.90573e-10 5.79409e-11 5.82761e-11 -1.90573e-10 -1.9145e-10 -1.68696e-11 -1.68277e-11 5.82761e-11 5.82547e-11 -1.68277e-11 -1.68227e-11 5.82547e-11 5.8231e-11 5.82761e-11 5.82547e-11 -1.9145e-10 -1.91499e-10 5.82547e-11 5.8231e-11 -1.91499e-10 -1.91375e-10 -1.94535e-10 -1.90573e-10 5.50989e-10 5.50077e-10 -1.90573e-10 -1.9145e-10 5.50077e-10 5.48265e-10 5.50989e-10 5.50077e-10 -1.32432e-09 -1.33243e-09 5.50077e-10 5.48265e-10 -1.33243e-09 -1.3257e-09 -1.9145e-10 -1.91499e-10 5.48265e-10 5.49098e-10 -1.91499e-10 -1.91375e-10 5.49098e-10 5.4884e-10 5.48265e-10 5.49098e-10 -1.3257e-09 -1.32837e-09 5.49098e-10 5.4884e-10 -1.32837e-09 -1.32758e-09 -6.42245e-14 -6.42094e-14 2.80045e-13 2.80063e-13 -6.42094e-14 -6.4191e-14 2.80063e-13 2.80009e-13 2.80045e-13 2.80063e-13 -1.15813e-12 -1.15858e-12 2.80063e-13 2.80009e-13 -1.15858e-12 -1.15818e-12 -6.4191e-14 -6.42043e-14 2.80009e-13 2.80045e-13 -6.42043e-14 -6.42065e-14 2.80045e-13 2.80024e-13 2.80009e-13 2.80045e-13 -1.15818e-12 -1.15838e-12 2.80045e-13 2.80024e-13 -1.15838e-12 -1.1583e-12 -1.15813e-12 -1.15858e-12 4.4896e-12 4.49078e-12 -1.15858e-12 -1.15818e-12 4.49078e-12 4.49007e-12 4.4896e-12 4.49078e-12 -1.68227e-11 -1.68305e-11 4.49078e-12 4.49007e-12 -1.68305e-11 -1.68265e-11 -1.15818e-12 -1.15838e-12 4.49007e-12 4.49035e-12 -1.15838e-12 -1.1583e-12 4.49035e-12 4.49026e-12 4.49007e-12 4.49035e-12 -1.68265e-11 -1.6828e-11 4.49035e-12 4.49026e-12 -1.6828e-11 -1.68276e-11 -6.42065e-14 -6.41839e-14 2.80024e-13 2.80012e-13 -6.41839e-14 -6.41591e-14 2.80012e-13 2.80315e-13 2.80024e-13 2.80012e-13 -1.1583e-12 -1.15833e-12 2.80012e-13 2.80315e-13 -1.15833e-12 -1.15834e-12 -6.41591e-14 -6.44013e-14 2.80315e-13 2.78472e-13 -6.44013e-14 -7.1374e-14 2.78472e-13 2.80744e-13 2.80315e-13 2.78472e-13 -1.15834e-12 -1.15819e-12 2.78472e-13 2.80744e-13 -1.15819e-12 -1.15973e-12 -1.1583e-12 -1.15833e-12 4.49026e-12 4.49029e-12 -1.15833e-12 -1.15834e-12 4.49029e-12 4.49028e-12 4.49026e-12 4.49029e-12 -1.68276e-11 -1.68277e-11 4.49029e-12 4.49028e-12 -1.68277e-11 -1.68276e-11 -1.15834e-12 -1.15819e-12 4.49028e-12 4.49023e-12 -1.15819e-12 -1.15973e-12 4.49023e-12 4.49027e-12 4.49028e-12 4.49023e-12 -1.68276e-11 -1.68276e-11 4.49023e-12 4.49027e-12 -1.68276e-11 -1.68277e-11 -1.68227e-11 -1.68305e-11 5.8231e-11 5.82429e-11 -1.68305e-11 -1.68265e-11 5.82429e-11 5.824e-11 5.8231e-11 5.82429e-11 -1.91375e-10 -1.91432e-10 5.82429e-11 5.824e-11 -1.91432e-10 -1.91416e-10 -1.68265e-11 -1.6828e-11 5.824e-11 5.824e-11 -1.6828e-11 -1.68276e-11 5.824e-11 5.82404e-11 5.824e-11 5.824e-11 -1.91416e-10 -1.91418e-10 5.824e-11 5.82404e-11 -1.91418e-10 -1.91419e-10 -1.91375e-10 -1.91432e-10 5.4884e-10 5.48852e-10 -1.91432e-10 -1.91416e-10 5.48852e-10 5.48886e-10 5.4884e-10 5.48852e-10 -1.32758e-09 -1.32769e-09 5.48852e-10 5.48886e-10 -1.32769e-09 -1.32773e-09 -1.91416e-10 -1.91418e-10 5.48886e-10 5.48862e-10 -1.91418e-10 -1.91419e-10 5.48862e-10 5.48873e-10 5.48886e-10 5.48862e-10 -1.32773e-09 -1.32769e-09 5.48862e-10 5.48873e-10 -1.32769e-09 -1.32771e-09 -1.68276e-11 -1.68277e-11 5.82404e-11 5.82402e-11 -1.68277e-11 -1.68276e-11 5.82402e-11 5.82403e-11 5.82404e-11 5.82402e-11 -1.91419e-10 -1.91418e-10 5.82402e-11 5.82403e-11 -1.91418e-10 -1.91419e-10 -1.68276e-11 -1.68276e-11 5.82403e-11 5.82403e-11 -1.68276e-11 -1.68277e-11 5.82403e-11 5.82403e-11 5.82403e-11 5.82403e-11 -1.91419e-10 -1.91419e-10 5.82403e-11 5.82403e-11 -1.91419e-10 -1.91419e-10 -1.91419e-10 -1.91418e-10 5.48873e-10 5.48869e-10 -1.91418e-10 -1.91419e-10 5.48869e-10 5.4887e-10 5.48873e-10 5.48869e-10 -1.32771e-09 -1.3277e-09 5.48869e-10 5.4887e-10 -1.3277e-09 -1.32771e-09 -1.91419e-10 -1.91419e-10 5.4887e-10 5.4887e-10 -1.91419e-10 -1.91419e-10 5.4887e-10 5.4887e-10 5.4887e-10 5.4887e-10 -1.32771e-09 -1.32771e-09 5.4887e-10 5.4887e-10 -1.32771e-09 -1.32771e-09 -1.30513e-09 -5.15643e-10 -5.53225e-09 -2.21485e-09 -5.15643e-10 -1.54206e-09 -2.21485e-09 2.85547e-09 -5.53225e-09 -2.21485e-09 2.98703e-09 1.89804e-08 -2.21485e-09 2.85547e-09 1.89804e-08 5.65135e-09 -1.54206e-09 -1.31482e-09 2.85547e-09 1.73018e-09 -1.31482e-09 -1.32432e-09 1.73018e-09 1.47123e-09 2.85547e-09 1.73018e-09 5.65135e-09 6.14109e-09 1.73018e-09 1.47123e-09 6.14109e-09 7.27783e-09 2.98703e-09 1.89804e-08 -1.49134e-07 -1.15877e-07 1.89804e-08 5.65135e-09 -1.15877e-07 -6.90553e-08 -1.49134e-07 -1.15877e-07 2.37956e-07 4.66808e-07 -1.15877e-07 -6.90553e-08 4.66808e-07 4.2988e-07 5.65135e-09 6.14109e-09 -6.90553e-08 -6.64545e-08 6.14109e-09 7.27783e-09 -6.64545e-08 -7.36808e-08 -6.90553e-08 -6.64545e-08 4.2988e-07 3.95342e-07 -6.64545e-08 -7.36808e-08 3.95342e-07 4.03965e-07 -1.32432e-09 -1.33243e-09 1.47123e-09 1.61122e-09 -1.33243e-09 -1.3257e-09 1.61122e-09 1.56203e-09 1.47123e-09 1.61122e-09 7.27783e-09 6.87176e-09 1.61122e-09 1.56203e-09 6.87176e-09 6.942e-09 -1.3257e-09 -1.32837e-09 1.56203e-09 1.56783e-09 -1.32837e-09 -1.32758e-09 1.56783e-09 1.56948e-09 1.56203e-09 1.56783e-09 6.942e-09 6.93889e-09 1.56783e-09 1.56948e-09 6.93889e-09 6.93505e-09 7.27783e-09 6.87176e-09 -7.36808e-08 -7.20283e-08 6.87176e-09 6.942e-09 -7.20283e-08 -7.20417e-08 -7.36808e-08 -7.20283e-08 4.03965e-07 4.04731e-07 -7.20283e-08 -7.20417e-08 4.04731e-07 4.03569e-07 6.942e-09 6.93889e-09 -7.20417e-08 -7.22173e-08 6.93889e-09 6.93505e-09 -7.22173e-08 -7.21313e-08 -7.20417e-08 -7.22173e-08 4.03569e-07 4.04017e-07 -7.22173e-08 -7.21313e-08 4.04017e-07 4.03911e-07 2.37956e-07 4.66808e-07 -2.29012e-06 -1.6593e-06 4.66808e-07 4.2988e-07 -1.6593e-06 -1.71078e-06 -2.29012e-06 -1.6593e-06 1.90162e-06 2.35155e-06 -1.6593e-06 -1.71078e-06 2.35155e-06 5.09657e-06 4.2988e-07 3.95342e-07 -1.71078e-06 -1.51772e-06 3.95342e-07 4.03965e-07 -1.51772e-06 -1.59315e-06 -1.71078e-06 -1.51772e-06 5.09657e-06 4.83492e-06 -1.51772e-06 -1.59315e-06 4.83492e-06 4.65535e-06 1.90162e-06 2.35155e-06 -2.25204e-05 4.47288e-06 2.35155e-06 5.09657e-06 4.47288e-06 4.19925e-06 -2.25204e-05 4.47288e-06 -0.00012 -0.00012 4.47288e-06 4.19925e-06 -0.00012 -0.00012 5.09657e-06 4.83492e-06 4.19925e-06 3.34938e-06 4.83492e-06 4.65535e-06 3.34938e-06 3.51739e-06 4.19925e-06 3.34938e-06 -0.00012 -0.00012 3.34938e-06 3.51739e-06 -0.00012 -0.00012 4.03965e-07 4.04731e-07 -1.59315e-06 -1.5885e-06 4.04731e-07 4.03569e-07 -1.5885e-06 -1.58398e-06 -1.59315e-06 -1.5885e-06 4.65535e-06 4.73305e-06 -1.5885e-06 -1.58398e-06 4.73305e-06 4.71307e-06 4.03569e-07 4.04017e-07 -1.58398e-06 -1.58648e-06 4.04017e-07 4.03911e-07 -1.58648e-06 -1.58567e-06 -1.58398e-06 -1.58648e-06 4.71307e-06 4.71626e-06 -1.58648e-06 -1.58567e-06 4.71626e-06 4.71624e-06 4.65535e-06 4.73305e-06 3.51739e-06 3.51383e-06 4.73305e-06 4.71307e-06 3.51383e-06 3.50335e-06 3.51739e-06 3.51383e-06 -0.00012 -0.00012 3.51383e-06 3.50335e-06 -0.00012 -0.00012 4.71307e-06 4.71626e-06 3.50335e-06 3.50821e-06 4.71626e-06 4.71624e-06 3.50821e-06 3.50673e-06 3.50335e-06 3.50821e-06 -0.00012 -0.00012 3.50821e-06 3.50673e-06 -0.00012 -0.00012 -1.32758e-09 -1.32769e-09 1.56948e-09 1.56791e-09 -1.32769e-09 -1.32773e-09 1.56791e-09 1.56864e-09 1.56948e-09 1.56791e-09 6.93505e-09 6.93689e-09 1.56791e-09 1.56864e-09 6.93689e-09 6.93631e-09 -1.32773e-09 -1.32769e-09 1.56864e-09 1.56838e-09 -1.32769e-09 -1.32771e-09 1.56838e-09 1.56846e-09 1.56864e-09 1.56838e-09 6.93631e-09 6.93646e-09 1.56838e-09 1.56846e-09 6.93646e-09 6.93643e-09 6.93505e-09 6.93689e-09 -7.21313e-08 -7.21583e-08 6.93689e-09 6.93631e-09 -7.21583e-08 -7.21521e-08 -7.21313e-08 -7.21583e-08 4.03911e-07 4.03923e-07 -7.21583e-08 -7.21521e-08 4.03923e-07 4.03926e-07 6.93631e-09 6.93646e-09 -7.21521e-08 -7.2153e-08 6.93646e-09 6.93643e-09 -7.2153e-08 -7.21531e-08 -7.21521e-08 -7.2153e-08 4.03926e-07 4.03924e-07 -7.2153e-08 -7.21531e-08 4.03924e-07 4.03925e-07 -1.32771e-09 -1.3277e-09 1.56846e-09 1.56844e-09 -1.3277e-09 -1.32771e-09 1.56844e-09 1.56844e-09 1.56846e-09 1.56844e-09 6.93643e-09 6.93643e-09 1.56844e-09 1.56844e-09 6.93643e-09 6.93643e-09 -1.32771e-09 -1.32771e-09 1.56844e-09 1.56844e-09 -1.32771e-09 -1.32771e-09 1.56844e-09 1.56844e-09 1.56844e-09 1.56844e-09 6.93643e-09 6.93643e-09 1.56844e-09 1.56844e-09 6.93643e-09 6.93643e-09 6.93643e-09 6.93643e-09 -7.21531e-08 -7.2153e-08 6.93643e-09 6.93643e-09 -7.2153e-08 -7.2153e-08 -7.21531e-08 -7.2153e-08 4.03925e-07 4.03924e-07 -7.2153e-08 -7.2153e-08 4.03924e-07 4.03925e-07 6.93643e-09 6.93643e-09 -7.2153e-08 -7.2153e-08 6.93643e-09 6.93643e-09 -7.2153e-08 -7.2153e-08 -7.2153e-08 -7.2153e-08 4.03925e-07 4.03924e-07 -7.2153e-08 -7.2153e-08 4.03924e-07 4.03924e-07 4.03911e-07 4.03923e-07 -1.58567e-06 -1.58586e-06 4.03923e-07 4.03926e-07 -1.58586e-06 -1.58583e-06 -1.58567e-06 -1.58586e-06 4.71624e-06 4.71602e-06 -1.58586e-06 -1.58583e-06 4.71602e-06 4.71613e-06 4.03926e-07 4.03924e-07 -1.58583e-06 -1.58583e-06 4.03924e-07 4.03925e-07 -1.58583e-06 -1.58583e-06 -1.58583e-06 -1.58583e-06 4.71613e-06 4.71609e-06 -1.58583e-06 -1.58583e-06 4.71609e-06 4.7161e-06 4.71624e-06 4.71602e-06 3.50673e-06 3.50708e-06 4.71602e-06 4.71613e-06 3.50708e-06 3.50701e-06 3.50673e-06 3.50708e-06 -0.00012 -0.00012 3.50708e-06 3.50701e-06 -0.00012 -0.00012 4.71613e-06 4.71609e-06 3.50701e-06 3.50702e-06 4.71609e-06 4.7161e-06 3.50702e-06 3.50702e-06 3.50701e-06 3.50702e-06 -0.00012 -0.00012 3.50702e-06 3.50702e-06 -0.00012 -0.00012 4.03925e-07 4.03924e-07 -1.58583e-06 -1.58583e-06 4.03924e-07 4.03925e-07 -1.58583e-06 -1.58583e-06 -1.58583e-06 -1.58583e-06 4.7161e-06 4.7161e-06 -1.58583e-06 -1.58583e-06 4.7161e-06 4.7161e-06 4.03925e-07 4.03924e-07 -1.58583e-06 -1.58583e-06 4.03924e-07 4.03924e-07 -1.58583e-06 -1.58583e-06 -1.58583e-06 -1.58583e-06 4.7161e-06 4.7161e-06 -1.58583e-06 -1.58583e-06 4.7161e-06 4.7161e-06 4.7161e-06 4.7161e-06 3.50702e-06 3.50702e-06 4.7161e-06 4.7161e-06 3.50702e-06 3.50702e-06 3.50702e-06 3.50702e-06 -0.00012 -0.00012 3.50702e-06 3.50702e-06 -0.00012 -0.00012 4.7161e-06 4.7161e-06 3.50702e-06 3.50702e-06 4.7161e-06 4.7161e-06 3.50702e-06 3.50702e-06 3.50702e-06 3.50702e-06 -0.00012 -0.00012 3.50702e-06 3.50702e-06 -0.00012 -0.00012 -7.1374e-14 -1.35714e-13 2.80744e-13 2.95013e-13 -1.35714e-13 -1.31153e-13 2.95013e-13 2.96654e-13 2.80744e-13 2.95013e-13 -1.15973e-12 -1.16196e-12 2.95013e-13 2.96654e-13 -1.16196e-12 -1.1615e-12 -1.31153e-13 -1.31333e-13 2.96654e-13 2.95519e-13 -1.31333e-13 -1.32139e-13 2.95519e-13 2.95897e-13 2.96654e-13 2.95519e-13 -1.1615e-12 -1.16133e-12 2.95519e-13 2.95897e-13 -1.16133e-12 -1.16149e-12 -1.15973e-12 -1.16196e-12 4.49027e-12 4.49062e-12 -1.16196e-12 -1.1615e-12 4.49062e-12 4.49084e-12 4.49027e-12 4.49062e-12 -1.68277e-11 -1.68276e-11 4.49062e-12 4.49084e-12 -1.68276e-11 -1.68277e-11 -1.1615e-12 -1.16133e-12 4.49084e-12 4.49075e-12 -1.16133e-12 -1.16149e-12 4.49075e-12 4.49082e-12 4.49084e-12 4.49075e-12 -1.68277e-11 -1.68277e-11 4.49075e-12 4.49082e-12 -1.68277e-11 -1.68277e-11 -1.32139e-13 -1.31782e-13 2.95897e-13 2.95777e-13 -1.31782e-13 -1.31928e-13 2.95777e-13 2.95852e-13 2.95897e-13 2.95777e-13 -1.16149e-12 -1.16142e-12 2.95777e-13 2.95852e-13 -1.16142e-12 -1.16152e-12 -1.31928e-13 -1.31835e-13 2.95852e-13 2.95735e-13 -1.31835e-13 -1.31964e-13 2.95735e-13 2.95968e-13 2.95852e-13 2.95735e-13 -1.16152e-12 -1.16129e-12 2.95735e-13 2.95968e-13 -1.16129e-12 -1.16178e-12 -1.16149e-12 -1.16142e-12 4.49082e-12 4.49066e-12 -1.16142e-12 -1.16152e-12 4.49066e-12 4.49108e-12 4.49082e-12 4.49066e-12 -1.68277e-11 -1.68275e-11 4.49066e-12 4.49108e-12 -1.68275e-11 -1.68282e-11 -1.16152e-12 -1.16129e-12 4.49108e-12 4.49012e-12 -1.16129e-12 -1.16178e-12 4.49012e-12 4.49217e-12 4.49108e-12 4.49012e-12 -1.68282e-11 -1.68263e-11 4.49012e-12 4.49217e-12 -1.68263e-11 -1.68309e-11 -1.68277e-11 -1.68276e-11 5.82403e-11 5.82402e-11 -1.68276e-11 -1.68277e-11 5.82402e-11 5.82403e-11 5.82403e-11 5.82402e-11 -1.91419e-10 -1.91419e-10 5.82402e-11 5.82403e-11 -1.91419e-10 -1.91419e-10 -1.68277e-11 -1.68277e-11 5.82403e-11 5.82402e-11 -1.68277e-11 -1.68277e-11 5.82402e-11 5.82405e-11 5.82403e-11 5.82402e-11 -1.91419e-10 -1.91419e-10 5.82402e-11 5.82405e-11 -1.91419e-10 -1.91419e-10 -1.91419e-10 -1.91419e-10 5.4887e-10 5.4887e-10 -1.91419e-10 -1.91419e-10 5.4887e-10 5.4887e-10 5.4887e-10 5.4887e-10 -1.32771e-09 -1.32771e-09 5.4887e-10 5.4887e-10 -1.32771e-09 -1.32771e-09 -1.91419e-10 -1.91419e-10 5.4887e-10 5.4887e-10 -1.91419e-10 -1.91419e-10 5.4887e-10 5.4887e-10 5.4887e-10 5.4887e-10 -1.32771e-09 -1.32771e-09 5.4887e-10 5.4887e-10 -1.32771e-09 -1.3277e-09 -1.68277e-11 -1.68275e-11 5.82405e-11 5.82395e-11 -1.68275e-11 -1.68282e-11 5.82395e-11 5.82424e-11 5.82405e-11 5.82395e-11 -1.91419e-10 -1.91418e-10 5.82395e-11 5.82424e-11 -1.91418e-10 -1.91421e-10 -1.68282e-11 -1.68263e-11 5.82424e-11 5.82345e-11 -1.68263e-11 -1.68309e-11 5.82345e-11 5.82543e-11 5.82424e-11 5.82345e-11 -1.91421e-10 -1.9141e-10 5.82345e-11 5.82543e-11 -1.9141e-10 -1.91449e-10 -1.91419e-10 -1.91418e-10 5.4887e-10 5.48866e-10 -1.91418e-10 -1.91421e-10 5.48866e-10 5.48884e-10 5.4887e-10 5.48866e-10 -1.3277e-09 -1.32771e-09 5.48866e-10 5.48884e-10 -1.32771e-09 -1.3277e-09 -1.91421e-10 -1.9141e-10 5.48884e-10 5.4882e-10 -1.9141e-10 -1.91449e-10 5.4882e-10 5.49026e-10 5.48884e-10 5.4882e-10 -1.3277e-09 -1.32766e-09 5.4882e-10 5.49026e-10 -1.32766e-09 -1.32801e-09 -1.31964e-13 -1.31691e-13 2.95968e-13 2.95421e-13 -1.31691e-13 -1.32452e-13 2.95421e-13 2.97051e-13 2.95968e-13 2.95421e-13 -1.16178e-12 -1.16067e-12 2.95421e-13 2.97051e-13 -1.16067e-12 -1.16399e-12 -1.32452e-13 -1.30116e-13 2.97051e-13 2.91959e-13 -1.30116e-13 -1.35688e-13 2.91959e-13 3.04055e-13 2.97051e-13 2.91959e-13 -1.16399e-12 -1.15339e-12 2.91959e-13 3.04055e-13 -1.15339e-12 -1.17968e-12 -1.16178e-12 -1.16067e-12 4.49217e-12 4.4875e-12 -1.16067e-12 -1.16399e-12 4.4875e-12 4.50049e-12 4.49217e-12 4.4875e-12 -1.68309e-11 -1.68198e-11 4.4875e-12 4.50049e-12 -1.68198e-11 -1.68486e-11 -1.16399e-12 -1.15339e-12 4.50049e-12 4.46091e-12 -1.15339e-12 -1.17968e-12 4.46091e-12 4.5652e-12 4.50049e-12 4.46091e-12 -1.68486e-11 -1.67738e-11 4.46091e-12 4.5652e-12 -1.67738e-11 -1.69506e-11 -1.35688e-13 -1.29784e-13 3.04055e-13 2.88346e-13 -1.29784e-13 -1.15907e-13 2.88346e-13 2.70448e-13 3.04055e-13 2.88346e-13 -1.17968e-12 -1.14607e-12 2.88346e-13 2.70448e-13 -1.14607e-12 -1.16045e-12 -1.15907e-13 -1.68586e-13 2.70448e-13 3.30468e-13 -1.68586e-13 -1.18191e-13 3.30468e-13 4.48054e-13 2.70448e-13 3.30468e-13 -1.16045e-12 -1.14269e-12 3.30468e-13 4.48054e-13 -1.14269e-12 -8.92217e-13 -1.17968e-12 -1.14607e-12 4.5652e-12 4.37044e-12 -1.14607e-12 -1.16045e-12 4.37044e-12 4.58156e-12 4.5652e-12 4.37044e-12 -1.69506e-11 -1.65719e-11 4.37044e-12 4.58156e-12 -1.65719e-11 -1.8178e-11 -1.16045e-12 -1.14269e-12 4.58156e-12 4.27775e-12 -1.14269e-12 -8.92217e-13 4.27775e-12 5.38405e-12 4.58156e-12 4.27775e-12 -1.8178e-11 -1.38674e-11 4.27775e-12 5.38405e-12 -1.38674e-11 -9.56188e-12 -1.68309e-11 -1.68198e-11 5.82543e-11 5.82066e-11 -1.68198e-11 -1.68486e-11 5.82066e-11 5.83223e-11 5.82543e-11 5.82066e-11 -1.91449e-10 -1.91336e-10 5.82066e-11 5.83223e-11 -1.91336e-10 -1.91599e-10 -1.68486e-11 -1.67738e-11 5.83223e-11 5.80387e-11 -1.67738e-11 -1.69506e-11 5.80387e-11 5.87704e-11 5.83223e-11 5.80387e-11 -1.91599e-10 -1.91169e-10 5.80387e-11 5.87704e-11 -1.91169e-10 -1.91793e-10 -1.91449e-10 -1.91336e-10 5.49026e-10 5.48443e-10 -1.91336e-10 -1.91599e-10 5.48443e-10 5.49845e-10 5.49026e-10 5.48443e-10 -1.32801e-09 -1.3266e-09 5.48443e-10 5.49845e-10 -1.3266e-09 -1.33051e-09 -1.91599e-10 -1.91169e-10 5.49845e-10 5.47122e-10 -1.91169e-10 -1.91793e-10 5.47122e-10 5.5232e-10 5.49845e-10 5.47122e-10 -1.33051e-09 -1.32345e-09 5.47122e-10 5.5232e-10 -1.32345e-09 -1.33206e-09 -1.69506e-11 -1.65719e-11 5.87704e-11 5.66476e-11 -1.65719e-11 -1.8178e-11 5.66476e-11 6.31553e-11 5.87704e-11 5.66476e-11 -1.91793e-10 -1.88313e-10 5.66476e-11 6.31553e-11 -1.88313e-10 -2.18406e-10 -1.8178e-11 -1.38674e-11 6.31553e-11 4.69144e-11 -1.38674e-11 -9.56188e-12 4.69144e-11 5.83094e-11 6.31553e-11 4.69144e-11 -2.18406e-10 -1.25724e-10 4.69144e-11 5.83094e-11 -1.25724e-10 -5.72978e-11 -1.91793e-10 -1.88313e-10 5.5232e-10 5.33398e-10 -1.88313e-10 -2.18406e-10 5.33398e-10 6.23614e-10 5.5232e-10 5.33398e-10 -1.33206e-09 -1.29334e-09 5.33398e-10 6.23614e-10 -1.29334e-09 -1.65727e-09 -2.18406e-10 -1.25724e-10 6.23614e-10 3.32444e-10 -1.25724e-10 -5.72978e-11 3.32444e-10 4.89298e-10 6.23614e-10 3.32444e-10 -1.65727e-09 -4.44228e-10 3.32444e-10 4.89298e-10 -4.44228e-10 7.04682e-10 -1.32771e-09 -1.32771e-09 1.56844e-09 1.56844e-09 -1.32771e-09 -1.32771e-09 1.56844e-09 1.56844e-09 1.56844e-09 1.56844e-09 6.93643e-09 6.93643e-09 1.56844e-09 1.56844e-09 6.93643e-09 6.93644e-09 -1.32771e-09 -1.32771e-09 1.56844e-09 1.56844e-09 -1.32771e-09 -1.3277e-09 1.56844e-09 1.56843e-09 1.56844e-09 1.56844e-09 6.93644e-09 6.93642e-09 1.56844e-09 1.56843e-09 6.93642e-09 6.93647e-09 6.93643e-09 6.93643e-09 -7.2153e-08 -7.2153e-08 6.93643e-09 6.93644e-09 -7.2153e-08 -7.2153e-08 -7.2153e-08 -7.2153e-08 4.03924e-07 4.03924e-07 -7.2153e-08 -7.2153e-08 4.03924e-07 4.03924e-07 6.93644e-09 6.93642e-09 -7.2153e-08 -7.2153e-08 6.93642e-09 6.93647e-09 -7.2153e-08 -7.2153e-08 -7.2153e-08 -7.2153e-08 4.03924e-07 4.03924e-07 -7.2153e-08 -7.2153e-08 4.03924e-07 4.03924e-07 -1.3277e-09 -1.32771e-09 1.56843e-09 1.56846e-09 -1.32771e-09 -1.3277e-09 1.56846e-09 1.56844e-09 1.56843e-09 1.56846e-09 6.93647e-09 6.93638e-09 1.56846e-09 1.56844e-09 6.93638e-09 6.93638e-09 -1.3277e-09 -1.32766e-09 1.56844e-09 1.56829e-09 -1.32766e-09 -1.32801e-09 1.56829e-09 1.56933e-09 1.56844e-09 1.56829e-09 6.93638e-09 6.93729e-