# vtk DataFile Version 3.0
#This file was generated by the deal.II library on 2022/11/2 at 18:40:47
ASCII
DATASET UNSTRUCTURED_GRID

POINTS 4096 double
0 0.5 0
0.03125 0.5 0
0 0.53125 0
0.03125 0.53125 0
0.03125 0.5 0
0.0625 0.5 0
0.03125 0.53125 0
0.0625 0.53125 0
0 0.53125 0
0.03125 0.53125 0
0 0.5625 0
0.03125 0.5625 0
0.03125 0.53125 0
0.0625 0.53125 0
0.03125 0.5625 0
0.0625 0.5625 0
0.0625 0.5 0
0.09375 0.5 0
0.0625 0.53125 0
0.09375 0.53125 0
0.09375 0.5 0
0.125 0.5 0
0.09375 0.53125 0
0.125 0.53125 0
0.0625 0.53125 0
0.09375 0.53125 0
0.0625 0.5625 0
0.09375 0.5625 0
0.09375 0.53125 0
0.125 0.53125 0
0.09375 0.5625 0
0.125 0.5625 0
0 0.5625 0
0.03125 0.5625 0
0 0.59375 0
0.03125 0.59375 0
0.03125 0.5625 0
0.0625 0.5625 0
0.03125 0.59375 0
0.0625 0.59375 0
0 0.59375 0
0.03125 0.59375 0
0 0.625 0
0.03125 0.625 0
0.03125 0.59375 0
0.0625 0.59375 0
0.03125 0.625 0
0.0625 0.625 0
0.0625 0.5625 0
0.09375 0.5625 0
0.0625 0.59375 0
0.09375 0.59375 0
0.09375 0.5625 0
0.125 0.5625 0
0.09375 0.59375 0
0.125 0.59375 0
0.0625 0.59375 0
0.09375 0.59375 0
0.0625 0.625 0
0.09375 0.625 0
0.09375 0.59375 0
0.125 0.59375 0
0.09375 0.625 0
0.125 0.625 0
0.125 0.5 0
0.15625 0.5 0
0.125 0.53125 0
0.15625 0.53125 0
0.15625 0.5 0
0.1875 0.5 0
0.15625 0.53125 0
0.1875 0.53125 0
0.125 0.53125 0
0.15625 0.53125 0
0.125 0.5625 0
0.15625 0.5625 0
0.15625 0.53125 0
0.1875 0.53125 0
0.15625 0.5625 0
0.1875 0.5625 0
0.1875 0.5 0
0.21875 0.5 0
0.1875 0.53125 0
0.21875 0.53125 0
0.21875 0.5 0
0.25 0.5 0
0.21875 0.53125 0
0.25 0.53125 0
0.1875 0.53125 0
0.21875 0.53125 0
0.1875 0.5625 0
0.21875 0.5625 0
0.21875 0.53125 0
0.25 0.53125 0
0.21875 0.5625 0
0.25 0.5625 0
0.125 0.5625 0
0.15625 0.5625 0
0.125 0.59375 0
0.15625 0.59375 0
0.15625 0.5625 0
0.1875 0.5625 0
0.15625 0.59375 0
0.1875 0.59375 0
0.125 0.59375 0
0.15625 0.59375 0
0.125 0.625 0
0.15625 0.625 0
0.15625 0.59375 0
0.1875 0.59375 0
0.15625 0.625 0
0.1875 0.625 0
0.1875 0.5625 0
0.21875 0.5625 0
0.1875 0.59375 0
0.21875 0.59375 0
0.21875 0.5625 0
0.25 0.5625 0
0.21875 0.59375 0
0.25 0.59375 0
0.1875 0.59375 0
0.21875 0.59375 0
0.1875 0.625 0
0.21875 0.625 0
0.21875 0.59375 0
0.25 0.59375 0
0.21875 0.625 0
0.25 0.625 0
0 0.625 0
0.03125 0.625 0
0 0.65625 0
0.03125 0.65625 0
0.03125 0.625 0
0.0625 0.625 0
0.03125 0.65625 0
0.0625 0.65625 0
0 0.65625 0
0.03125 0.65625 0
0 0.6875 0
0.03125 0.6875 0
0.03125 0.65625 0
0.0625 0.65625 0
0.03125 0.6875 0
0.0625 0.6875 0
0.0625 0.625 0
0.09375 0.625 0
0.0625 0.65625 0
0.09375 0.65625 0
0.09375 0.625 0
0.125 0.625 0
0.09375 0.65625 0
0.125 0.65625 0
0.0625 0.65625 0
0.09375 0.65625 0
0.0625 0.6875 0
0.09375 0.6875 0
0.09375 0.65625 0
0.125 0.65625 0
0.09375 0.6875 0
0.125 0.6875 0
0 0.6875 0
0.03125 0.6875 0
0 0.71875 0
0.03125 0.71875 0
0.03125 0.6875 0
0.0625 0.6875 0
0.03125 0.71875 0
0.0625 0.71875 0
0 0.71875 0
0.03125 0.71875 0
0 0.75 0
0.03125 0.75 0
0.03125 0.71875 0
0.0625 0.71875 0
0.03125 0.75 0
0.0625 0.75 0
0.0625 0.6875 0
0.09375 0.6875 0
0.0625 0.71875 0
0.09375 0.71875 0
0.09375 0.6875 0
0.125 0.6875 0
0.09375 0.71875 0
0.125 0.71875 0
0.0625 0.71875 0
0.09375 0.71875 0
0.0625 0.75 0
0.09375 0.75 0
0.09375 0.71875 0
0.125 0.71875 0
0.09375 0.75 0
0.125 0.75 0
0.125 0.625 0
0.15625 0.625 0
0.125 0.65625 0
0.15625 0.65625 0
0.15625 0.625 0
0.1875 0.625 0
0.15625 0.65625 0
0.1875 0.65625 0
0.125 0.65625 0
0.15625 0.65625 0
0.125 0.6875 0
0.15625 0.6875 0
0.15625 0.65625 0
0.1875 0.65625 0
0.15625 0.6875 0
0.1875 0.6875 0
0.1875 0.625 0
0.21875 0.625 0
0.1875 0.65625 0
0.21875 0.65625 0
0.21875 0.625 0
0.25 0.625 0
0.21875 0.65625 0
0.25 0.65625 0
0.1875 0.65625 0
0.21875 0.65625 0
0.1875 0.6875 0
0.21875 0.6875 0
0.21875 0.65625 0
0.25 0.65625 0
0.21875 0.6875 0
0.25 0.6875 0
0.125 0.6875 0
0.15625 0.6875 0
0.125 0.71875 0
0.15625 0.71875 0
0.15625 0.6875 0
0.1875 0.6875 0
0.15625 0.71875 0
0.1875 0.71875 0
0.125 0.71875 0
0.15625 0.71875 0
0.125 0.75 0
0.15625 0.75 0
0.15625 0.71875 0
0.1875 0.71875 0
0.15625 0.75 0
0.1875 0.75 0
0.1875 0.6875 0
0.21875 0.6875 0
0.1875 0.71875 0
0.21875 0.71875 0
0.21875 0.6875 0
0.25 0.6875 0
0.21875 0.71875 0
0.25 0.71875 0
0.1875 0.71875 0
0.21875 0.71875 0
0.1875 0.75 0
0.21875 0.75 0
0.21875 0.71875 0
0.25 0.71875 0
0.21875 0.75 0
0.25 0.75 0
0.25 0.5 0
0.28125 0.5 0
0.25 0.53125 0
0.28125 0.53125 0
0.28125 0.5 0
0.3125 0.5 0
0.28125 0.53125 0
0.3125 0.53125 0
0.25 0.53125 0
0.28125 0.53125 0
0.25 0.5625 0
0.28125 0.5625 0
0.28125 0.53125 0
0.3125 0.53125 0
0.28125 0.5625 0
0.3125 0.5625 0
0.3125 0.5 0
0.34375 0.5 0
0.3125 0.53125 0
0.34375 0.53125 0
0.34375 0.5 0
0.375 0.5 0
0.34375 0.53125 0
0.375 0.53125 0
0.3125 0.53125 0
0.34375 0.53125 0
0.3125 0.5625 0
0.34375 0.5625 0
0.34375 0.53125 0
0.375 0.53125 0
0.34375 0.5625 0
0.375 0.5625 0
0.25 0.5625 0
0.28125 0.5625 0
0.25 0.59375 0
0.28125 0.59375 0
0.28125 0.5625 0
0.3125 0.5625 0
0.28125 0.59375 0
0.3125 0.59375 0
0.25 0.59375 0
0.28125 0.59375 0
0.25 0.625 0
0.28125 0.625 0
0.28125 0.59375 0
0.3125 0.59375 0
0.28125 0.625 0
0.3125 0.625 0
0.3125 0.5625 0
0.34375 0.5625 0
0.3125 0.59375 0
0.34375 0.59375 0
0.34375 0.5625 0
0.375 0.5625 0
0.34375 0.59375 0
0.375 0.59375 0
0.3125 0.59375 0
0.34375 0.59375 0
0.3125 0.625 0
0.34375 0.625 0
0.34375 0.59375 0
0.375 0.59375 0
0.34375 0.625 0
0.375 0.625 0
0.375 0.5 0
0.40625 0.5 0
0.375 0.53125 0
0.40625 0.53125 0
0.40625 0.5 0
0.4375 0.5 0
0.40625 0.53125 0
0.4375 0.53125 0
0.375 0.53125 0
0.40625 0.53125 0
0.375 0.5625 0
0.40625 0.5625 0
0.40625 0.53125 0
0.4375 0.53125 0
0.40625 0.5625 0
0.4375 0.5625 0
0.4375 0.5 0
0.46875 0.5 0
0.4375 0.53125 0
0.46875 0.53125 0
0.46875 0.5 0
0.5 0.5 0
0.46875 0.53125 0
0.5 0.53125 0
0.4375 0.53125 0
0.46875 0.53125 0
0.4375 0.5625 0
0.46875 0.5625 0
0.46875 0.53125 0
0.5 0.53125 0
0.46875 0.5625 0
0.5 0.5625 0
0.375 0.5625 0
0.40625 0.5625 0
0.375 0.59375 0
0.40625 0.59375 0
0.40625 0.5625 0
0.4375 0.5625 0
0.40625 0.59375 0
0.4375 0.59375 0
0.375 0.59375 0
0.40625 0.59375 0
0.375 0.625 0
0.40625 0.625 0
0.40625 0.59375 0
0.4375 0.59375 0
0.40625 0.625 0
0.4375 0.625 0
0.4375 0.5625 0
0.46875 0.5625 0
0.4375 0.59375 0
0.46875 0.59375 0
0.46875 0.5625 0
0.5 0.5625 0
0.46875 0.59375 0
0.5 0.59375 0
0.4375 0.59375 0
0.46875 0.59375 0
0.4375 0.625 0
0.46875 0.625 0
0.46875 0.59375 0
0.5 0.59375 0
0.46875 0.625 0
0.5 0.625 0
0.25 0.625 0
0.28125 0.625 0
0.25 0.65625 0
0.28125 0.65625 0
0.28125 0.625 0
0.3125 0.625 0
0.28125 0.65625 0
0.3125 0.65625 0
0.25 0.65625 0
0.28125 0.65625 0
0.25 0.6875 0
0.28125 0.6875 0
0.28125 0.65625 0
0.3125 0.65625 0
0.28125 0.6875 0
0.3125 0.6875 0
0.3125 0.625 0
0.34375 0.625 0
0.3125 0.65625 0
0.34375 0.65625 0
0.34375 0.625 0
0.375 0.625 0
0.34375 0.65625 0
0.375 0.65625 0
0.3125 0.65625 0
0.34375 0.65625 0
0.3125 0.6875 0
0.34375 0.6875 0
0.34375 0.65625 0
0.375 0.65625 0
0.34375 0.6875 0
0.375 0.6875 0
0.25 0.6875 0
0.28125 0.6875 0
0.25 0.71875 0
0.28125 0.71875 0
0.28125 0.6875 0
0.3125 0.6875 0
0.28125 0.71875 0
0.3125 0.71875 0
0.25 0.71875 0
0.28125 0.71875 0
0.25 0.75 0
0.28125 0.75 0
0.28125 0.71875 0
0.3125 0.71875 0
0.28125 0.75 0
0.3125 0.75 0
0.3125 0.6875 0
0.34375 0.6875 0
0.3125 0.71875 0
0.34375 0.71875 0
0.34375 0.6875 0
0.375 0.6875 0
0.34375 0.71875 0
0.375 0.71875 0
0.3125 0.71875 0
0.34375 0.71875 0
0.3125 0.75 0
0.34375 0.75 0
0.34375 0.71875 0
0.375 0.71875 0
0.34375 0.75 0
0.375 0.75 0
0.375 0.625 0
0.40625 0.625 0
0.375 0.65625 0
0.40625 0.65625 0
0.40625 0.625 0
0.4375 0.625 0
0.40625 0.65625 0
0.4375 0.65625 0
0.375 0.65625 0
0.40625 0.65625 0
0.375 0.6875 0
0.40625 0.6875 0
0.40625 0.65625 0
0.4375 0.65625 0
0.40625 0.6875 0
0.4375 0.6875 0
0.4375 0.625 0
0.46875 0.625 0
0.4375 0.65625 0
0.46875 0.65625 0
0.46875 0.625 0
0.5 0.625 0
0.46875 0.65625 0
0.5 0.65625 0
0.4375 0.65625 0
0.46875 0.65625 0
0.4375 0.6875 0
0.46875 0.6875 0
0.46875 0.65625 0
0.5 0.65625 0
0.46875 0.6875 0
0.5 0.6875 0
0.375 0.6875 0
0.40625 0.6875 0
0.375 0.71875 0
0.40625 0.71875 0
0.40625 0.6875 0
0.4375 0.6875 0
0.40625 0.71875 0
0.4375 0.71875 0
0.375 0.71875 0
0.40625 0.71875 0
0.375 0.75 0
0.40625 0.75 0
0.40625 0.71875 0
0.4375 0.71875 0
0.40625 0.75 0
0.4375 0.75 0
0.4375 0.6875 0
0.46875 0.6875 0
0.4375 0.71875 0
0.46875 0.71875 0
0.46875 0.6875 0
0.5 0.6875 0
0.46875 0.71875 0
0.5 0.71875 0
0.4375 0.71875 0
0.46875 0.71875 0
0.4375 0.75 0
0.46875 0.75 0
0.46875 0.71875 0
0.5 0.71875 0
0.46875 0.75 0
0.5 0.75 0
0 0.75 0
0.03125 0.75 0
0 0.78125 0
0.03125 0.78125 0
0.03125 0.75 0
0.0625 0.75 0
0.03125 0.78125 0
0.0625 0.78125 0
0 0.78125 0
0.03125 0.78125 0
0 0.8125 0
0.03125 0.8125 0
0.03125 0.78125 0
0.0625 0.78125 0
0.03125 0.8125 0
0.0625 0.8125 0
0.0625 0.75 0
0.09375 0.75 0
0.0625 0.78125 0
0.09375 0.78125 0
0.09375 0.75 0
0.125 0.75 0
0.09375 0.78125 0
0.125 0.78125 0
0.0625 0.78125 0
0.09375 0.78125 0
0.0625 0.8125 0
0.09375 0.8125 0
0.09375 0.78125 0
0.125 0.78125 0
0.09375 0.8125 0
0.125 0.8125 0
0 0.8125 0
0.03125 0.8125 0
0 0.84375 0
0.03125 0.84375 0
0.03125 0.8125 0
0.0625 0.8125 0
0.03125 0.84375 0
0.0625 0.84375 0
0 0.84375 0
0.03125 0.84375 0
0 0.875 0
0.03125 0.875 0
0.03125 0.84375 0
0.0625 0.84375 0
0.03125 0.875 0
0.0625 0.875 0
0.0625 0.8125 0
0.09375 0.8125 0
0.0625 0.84375 0
0.09375 0.84375 0
0.09375 0.8125 0
0.125 0.8125 0
0.09375 0.84375 0
0.125 0.84375 0
0.0625 0.84375 0
0.09375 0.84375 0
0.0625 0.875 0
0.09375 0.875 0
0.09375 0.84375 0
0.125 0.84375 0
0.09375 0.875 0
0.125 0.875 0
0.125 0.75 0
0.15625 0.75 0
0.125 0.78125 0
0.15625 0.78125 0
0.15625 0.75 0
0.1875 0.75 0
0.15625 0.78125 0
0.1875 0.78125 0
0.125 0.78125 0
0.15625 0.78125 0
0.125 0.8125 0
0.15625 0.8125 0
0.15625 0.78125 0
0.1875 0.78125 0
0.15625 0.8125 0
0.1875 0.8125 0
0.1875 0.75 0
0.21875 0.75 0
0.1875 0.78125 0
0.21875 0.78125 0
0.21875 0.75 0
0.25 0.75 0
0.21875 0.78125 0
0.25 0.78125 0
0.1875 0.78125 0
0.21875 0.78125 0
0.1875 0.8125 0
0.21875 0.8125 0
0.21875 0.78125 0
0.25 0.78125 0
0.21875 0.8125 0
0.25 0.8125 0
0.125 0.8125 0
0.15625 0.8125 0
0.125 0.84375 0
0.15625 0.84375 0
0.15625 0.8125 0
[...]
POINT_DATA 4096
SCALARS x_dis double 1
LOOKUP_TABLE default
-6.38394e-14 -5.38012e-14 1.22031e-13 1.74664e-13 -5.38012e-14 -5.4834e-14 1.74664e-13 2.03446e-13 1.22031e-13 1.74664e-13 -6.94574e-13 -5.59464e-13 1.74664e-13 2.03446e-13 -5.59464e-13 -6.89812e-13 -5.4834e-14 -5.53007e-14 2.03446e-13 1.92841e-13 -5.53007e-14 -5.85642e-14 1.92841e-13 2.03515e-13 2.03446e-13 1.92841e-13 -6.89812e-13 -6.44058e-13 1.92841e-13 2.03515e-13 -6.44058e-13 -6.85732e-13 -6.94574e-13 -5.59464e-13 7.93603e-13 1.53263e-12 -5.59464e-13 -6.89812e-13 1.53263e-12 2.35997e-12 7.93603e-13 1.53263e-12 -5.97882e-12 -3.79222e-12 1.53263e-12 2.35997e-12 -3.79222e-12 -6.9702e-12 -6.89812e-13 -6.44058e-13 2.35997e-12 2.0145e-12 -6.44058e-13 -6.85732e-13 2.0145e-12 2.14043e-12 2.35997e-12 2.0145e-12 -6.9702e-12 -5.82059e-12 2.0145e-12 2.14043e-12 -5.82059e-12 -6.23116e-12 -5.85642e-14 -5.60064e-14 2.03515e-13 1.96802e-13 -5.60064e-14 -5.71514e-14 1.96802e-13 1.99244e-13 2.03515e-13 1.96802e-13 -6.85732e-13 -6.63227e-13 1.96802e-13 1.99244e-13 -6.63227e-13 -6.70952e-13 -5.71514e-14 -5.68408e-14 1.99244e-13 1.9882e-13 -5.68408e-14 -5.6858e-14 1.9882e-13 1.98701e-13 1.99244e-13 1.9882e-13 -6.70952e-13 -6.69818e-13 1.9882e-13 1.98701e-13 -6.69818e-13 -6.69235e-13 -6.85732e-13 -6.63227e-13 2.14043e-12 2.0965e-12 -6.63227e-13 -6.70952e-13 2.0965e-12 2.10243e-12 2.14043e-12 2.0965e-12 -6.23116e-12 -6.11235e-12 2.0965e-12 2.10243e-12 -6.11235e-12 -6.12014e-12 -6.70952e-13 -6.69818e-13 2.10243e-12 2.10594e-12 -6.69818e-13 -6.69235e-13 2.10594e-12 2.10229e-12 2.10243e-12 2.10594e-12 -6.12014e-12 -6.13489e-12 2.10594e-12 2.10229e-12 -6.13489e-12 -6.1223e-12 -5.97882e-12 -3.79222e-12 -5.73674e-12 4.78861e-12 -3.79222e-12 -6.9702e-12 4.78861e-12 2.00943e-11 -5.73674e-12 4.78861e-12 -2.33522e-11 1.61035e-11 4.78861e-12 2.00943e-11 1.61035e-11 -3.76937e-11 -6.9702e-12 -5.82059e-12 2.00943e-11 1.40053e-11 -5.82059e-12 -6.23116e-12 1.40053e-11 1.48913e-11 2.00943e-11 1.40053e-11 -3.76937e-11 -2.12558e-11 1.40053e-11 1.48913e-11 -2.12558e-11 -2.22964e-11 -2.33522e-11 1.61035e-11 -3.34649e-10 -1.92654e-10 1.61035e-11 -3.76937e-11 -1.92654e-10 2.15747e-11 -3.34649e-10 -1.92654e-10 4.8073e-10 1.18206e-09 -1.92654e-10 2.15747e-11 1.18206e-09 5.34391e-10 -3.76937e-11 -2.12558e-11 2.15747e-11 -5.03688e-11 -2.12558e-11 -2.22964e-11 -5.03688e-11 -5.55647e-11 2.15747e-11 -5.03688e-11 5.34391e-10 6.53738e-10 -5.03688e-11 -5.55647e-11 6.53738e-10 6.98951e-10 -6.23116e-12 -6.11235e-12 1.48913e-11 1.49554e-11 -6.11235e-12 -6.12014e-12 1.49554e-11 1.472e-11 1.48913e-11 1.49554e-11 -2.22964e-11 -2.32815e-11 1.49554e-11 1.472e-11 -2.32815e-11 -2.24066e-11 -6.12014e-12 -6.13489e-12 1.472e-11 1.48591e-11 -6.13489e-12 -6.1223e-12 1.48591e-11 1.47955e-11 1.472e-11 1.48591e-11 -2.24066e-11 -2.28129e-11 1.48591e-11 1.47955e-11 -2.28129e-11 -2.26556e-11 -2.22964e-11 -2.32815e-11 -5.55647e-11 -4.66839e-11 -2.32815e-11 -2.24066e-11 -4.66839e-11 -5.2196e-11 -5.55647e-11 -4.66839e-11 6.98951e-10 6.67555e-10 -4.66839e-11 -5.2196e-11 6.67555e-10 6.80506e-10 -2.24066e-11 -2.28129e-11 -5.2196e-11 -5.01362e-11 -2.28129e-11 -2.26556e-11 -5.01362e-11 -5.07896e-11 -5.2196e-11 -5.01362e-11 6.80506e-10 6.76719e-10 -5.01362e-11 -5.07896e-11 6.76719e-10 6.77643e-10 -5.6858e-14 -5.68978e-14 1.98701e-13 1.98849e-13 -5.68978e-14 -5.68667e-14 1.98849e-13 1.98765e-13 1.98701e-13 1.98849e-13 -6.69235e-13 -6.69833e-13 1.98849e-13 1.98765e-13 -6.69833e-13 -6.69504e-13 -5.68667e-14 -5.68812e-14 1.98765e-13 1.98801e-13 -5.68812e-14 -5.68793e-14 1.98801e-13 1.98795e-13 1.98765e-13 1.98801e-13 -6.69504e-13 -6.69647e-13 1.98801e-13 1.98795e-13 -6.69647e-13 -6.69596e-13 -6.69235e-13 -6.69833e-13 2.10229e-12 2.10424e-12 -6.69833e-13 -6.69504e-13 2.10424e-12 2.10344e-12 2.10229e-12 2.10424e-12 -6.1223e-12 -6.12874e-12 2.10424e-12 2.10344e-12 -6.12874e-12 -6.12614e-12 -6.69504e-13 -6.69647e-13 2.10344e-12 2.10372e-12 -6.69647e-13 -6.69596e-13 2.10372e-12 2.10364e-12 2.10344e-12 2.10372e-12 -6.12614e-12 -6.12703e-12 2.10372e-12 2.10364e-12 -6.12703e-12 -6.12677e-12 -5.68793e-14 -5.68818e-14 1.98795e-13 1.9875e-13 -5.68818e-14 -5.67996e-14 1.9875e-13 1.98996e-13 1.98795e-13 1.9875e-13 -6.69596e-13 -6.69599e-13 1.9875e-13 1.98996e-13 -6.69599e-13 -6.69651e-13 -5.67996e-14 -5.71034e-14 1.98996e-13 1.98072e-13 -5.71034e-14 -6.02575e-14 1.98072e-13 1.98823e-13 1.98996e-13 1.98072e-13 -6.69651e-13 -6.69475e-13 1.98072e-13 1.98823e-13 -6.69475e-13 -6.70448e-13 -6.69596e-13 -6.69599e-13 2.10364e-12 2.10365e-12 -6.69599e-13 -6.69651e-13 2.10365e-12 2.10367e-12 2.10364e-12 2.10365e-12 -6.12677e-12 -6.12684e-12 2.10365e-12 2.10367e-12 -6.12684e-12 -6.12683e-12 -6.69651e-13 -6.69475e-13 2.10367e-12 2.10359e-12 -6.69475e-13 -6.70448e-13 2.10359e-12 2.10373e-12 2.10367e-12 2.10359e-12 -6.12683e-12 -6.12681e-12 2.10359e-12 2.10373e-12 -6.12681e-12 -6.12686e-12 -6.1223e-12 -6.12874e-12 1.47955e-11 1.48186e-11 -6.12874e-12 -6.12614e-12 1.48186e-11 1.48117e-11 1.47955e-11 1.48186e-11 -2.26556e-11 -2.27063e-11 1.48186e-11 1.48117e-11 -2.27063e-11 -2.26927e-11 -6.12614e-12 -6.12703e-12 1.48117e-11 1.48133e-11 -6.12703e-12 -6.12677e-12 1.48133e-11 1.48131e-11 1.48117e-11 1.48133e-11 -2.26927e-11 -2.26955e-11 1.48133e-11 1.48131e-11 -2.26955e-11 -2.26952e-11 -2.26556e-11 -2.27063e-11 -5.07896e-11 -5.06251e-11 -2.27063e-11 -2.26927e-11 -5.06251e-11 -5.0654e-11 -5.07896e-11 -5.06251e-11 6.77643e-10 6.77466e-10 -5.06251e-11 -5.0654e-11 6.77466e-10 6.77483e-10 -2.26927e-11 -2.26955e-11 -5.0654e-11 -5.06537e-11 -2.26955e-11 -2.26952e-11 -5.06537e-11 -5.0651e-11 -5.0654e-11 -5.06537e-11 6.77483e-10 6.77488e-10 -5.06537e-11 -5.0651e-11 6.77488e-10 6.77484e-10 -6.12677e-12 -6.12684e-12 1.48131e-11 1.48131e-11 -6.12684e-12 -6.12683e-12 1.48131e-11 1.48131e-11 1.48131e-11 1.48131e-11 -2.26952e-11 -2.26951e-11 1.48131e-11 1.48131e-11 -2.26951e-11 -2.26952e-11 -6.12683e-12 -6.12681e-12 1.48131e-11 1.48131e-11 -6.12681e-12 -6.12686e-12 1.48131e-11 1.48131e-11 1.48131e-11 1.48131e-11 -2.26952e-11 -2.26951e-11 1.48131e-11 1.48131e-11 -2.26951e-11 -2.26952e-11 -2.26952e-11 -2.26951e-11 -5.0651e-11 -5.06526e-11 -2.26951e-11 -2.26952e-11 -5.06526e-11 -5.06519e-11 -5.0651e-11 -5.06526e-11 6.77484e-10 6.77486e-10 -5.06526e-11 -5.06519e-11 6.77486e-10 6.77485e-10 -2.26952e-11 -2.26951e-11 -5.06519e-11 -5.06522e-11 -2.26951e-11 -2.26952e-11 -5.06522e-11 -5.06521e-11 -5.06519e-11 -5.06522e-11 6.77485e-10 6.77485e-10 -5.06522e-11 -5.06521e-11 6.77485e-10 6.77485e-10 4.8073e-10 1.18206e-09 -7.5392e-09 -5.88075e-09 1.18206e-09 5.34391e-10 -5.88075e-09 -3.81057e-09 -7.5392e-09 -5.88075e-09 1.52777e-08 2.54747e-08 -5.88075e-09 -3.81057e-09 2.54747e-08 2.14761e-08 5.34391e-10 6.53738e-10 -3.81057e-09 -4.09765e-09 6.53738e-10 6.98951e-10 -4.09765e-09 -4.39642e-09 -3.81057e-09 -4.09765e-09 2.14761e-08 2.07752e-08 -4.09765e-09 -4.39642e-09 2.07752e-08 2.16576e-08 1.52777e-08 2.54747e-08 -1.23012e-07 -9.9388e-08 2.54747e-08 2.14761e-08 -9.9388e-08 -9.41303e-08 -1.23012e-07 -9.9388e-08 2.31993e-07 3.23073e-07 -9.9388e-08 -9.41303e-08 3.23073e-07 3.78392e-07 2.14761e-08 2.07752e-08 -9.41303e-08 -8.75672e-08 2.07752e-08 2.16576e-08 -8.75672e-08 -9.29058e-08 -9.41303e-08 -8.75672e-08 3.78392e-07 3.47672e-07 -8.75672e-08 -9.29058e-08 3.47672e-07 3.5401e-07 6.98951e-10 6.67555e-10 -4.39642e-09 -4.24118e-09 6.67555e-10 6.80506e-10 -4.24118e-09 -4.29811e-09 -4.39642e-09 -4.24118e-09 2.16576e-08 2.13158e-08 -4.24118e-09 -4.29811e-09 2.13158e-08 2.13945e-08 6.80506e-10 6.76719e-10 -4.29811e-09 -4.28494e-09 6.76719e-10 6.77643e-10 -4.28494e-09 -4.2868e-09 -4.29811e-09 -4.28494e-09 2.13945e-08 2.13835e-08 -4.28494e-09 -4.2868e-09 2.13835e-08 2.13823e-08 2.16576e-08 2.13158e-08 -9.29058e-08 -9.13019e-08 2.13158e-08 2.13945e-08 -9.13019e-08 -9.16012e-08 -9.29058e-08 -9.13019e-08 3.5401e-07 3.53972e-07 -9.13019e-08 -9.16012e-08 3.53972e-07 3.53407e-07 2.13945e-08 2.13835e-08 -9.16012e-08 -9.16109e-08 2.13835e-08 2.13823e-08 -9.16109e-08 -9.15797e-08 -9.16012e-08 -9.16109e-08 3.53407e-07 3.53691e-07 -9.16109e-08 -9.15797e-08 3.53691e-07 3.53596e-07 2.31993e-07 3.23073e-07 -1.48065e-06 -8.60862e-07 3.23073e-07 3.78392e-07 -8.60862e-07 -1.14384e-06 -1.48065e-06 -8.60862e-07 5.51451e-07 3.98956e-07 -8.60862e-07 -1.14384e-06 3.98956e-07 2.43754e-06 3.78392e-07 3.47672e-07 -1.14384e-06 -1.03533e-06 3.47672e-07 3.5401e-07 -1.03533e-06 -1.07882e-06 -1.14384e-06 -1.03533e-06 2.43754e-06 2.05043e-06 -1.03533e-06 -1.07882e-06 2.05043e-06 2.02215e-06 5.51451e-07 3.98956e-07 -9.85478e-06 9.39194e-06 3.98956e-07 2.43754e-06 9.39194e-06 8.45033e-06 -9.85478e-06 9.39194e-06 -0.0001 -0.0001 9.39194e-06 8.45033e-06 -0.0001 -0.0001 2.43754e-06 2.05043e-06 8.45033e-06 7.94897e-06 2.05043e-06 2.02215e-06 7.94897e-06 8.12358e-06 8.45033e-06 7.94897e-06 -0.0001 -0.0001 7.94897e-06 8.12358e-06 -0.0001 -0.0001 3.5401e-07 3.53972e-07 -1.07882e-06 -1.06903e-06 3.53972e-07 3.53407e-07 -1.06903e-06 -1.0705e-06 -1.07882e-06 -1.06903e-06 2.02215e-06 2.05594e-06 -1.06903e-06 -1.0705e-06 2.05594e-06 2.04315e-06 3.53407e-07 3.53691e-07 -1.0705e-06 -1.07053e-06 3.53691e-07 3.53596e-07 -1.07053e-06 -1.07041e-06 -1.0705e-06 -1.07053e-06 2.04315e-06 2.0466e-06 -1.07053e-06 -1.07041e-06 2.0466e-06 2.04588e-06 2.02215e-06 2.05594e-06 8.12358e-06 8.09052e-06 2.05594e-06 2.04315e-06 8.09052e-06 8.09319e-06 8.12358e-06 8.09052e-06 -0.0001 -0.0001 8.09052e-06 8.09319e-06 -0.0001 -0.0001 2.04315e-06 2.0466e-06 8.09319e-06 8.09415e-06 2.0466e-06 2.04588e-06 8.09415e-06 8.09354e-06 8.09319e-06 8.09415e-06 -0.0001 -0.0001 8.09415e-06 8.09354e-06 -0.0001 -0.0001 6.77643e-10 6.77466e-10 -4.2868e-09 -4.287e-09 6.77466e-10 6.77483e-10 -4.287e-09 -4.28673e-09 -4.2868e-09 -4.287e-09 2.13823e-08 2.13837e-08 -4.287e-09 -4.28673e-09 2.13837e-08 2.13831e-08 6.77483e-10 6.77488e-10 -4.28673e-09 -4.28686e-09 6.77488e-10 6.77484e-10 -4.28686e-09 -4.28681e-09 -4.28673e-09 -4.28686e-09 2.13831e-08 2.13833e-08 -4.28686e-09 -4.28681e-09 2.13833e-08 2.13833e-08 2.13823e-08 2.13837e-08 -9.15797e-08 -9.15948e-08 2.13837e-08 2.13831e-08 -9.15948e-08 -9.15895e-08 -9.15797e-08 -9.15948e-08 3.53596e-07 3.53621e-07 -9.15948e-08 -9.15895e-08 3.53621e-07 3.53616e-07 2.13831e-08 2.13833e-08 -9.15895e-08 -9.1591e-08 2.13833e-08 2.13833e-08 -9.1591e-08 -9.15907e-08 -9.15895e-08 -9.1591e-08 3.53616e-07 3.53616e-07 -9.1591e-08 -9.15907e-08 3.53616e-07 3.53616e-07 6.77484e-10 6.77486e-10 -4.28681e-09 -4.28683e-09 6.77486e-10 6.77485e-10 -4.28683e-09 -4.28682e-09 -4.28681e-09 -4.28683e-09 2.13833e-08 2.13833e-08 -4.28683e-09 -4.28682e-09 2.13833e-08 2.13833e-08 6.77485e-10 6.77485e-10 -4.28682e-09 -4.28682e-09 6.77485e-10 6.77485e-10 -4.28682e-09 -4.28682e-09 -4.28682e-09 -4.28682e-09 2.13833e-08 2.13833e-08 -4.28682e-09 -4.28682e-09 2.13833e-08 2.13833e-08 2.13833e-08 2.13833e-08 -9.15907e-08 -9.15908e-08 2.13833e-08 2.13833e-08 -9.15908e-08 -9.15907e-08 -9.15907e-08 -9.15908e-08 3.53616e-07 3.53616e-07 -9.15908e-08 -9.15907e-08 3.53616e-07 3.53616e-07 2.13833e-08 2.13833e-08 -9.15907e-08 -9.15907e-08 2.13833e-08 2.13833e-08 -9.15907e-08 -9.15907e-08 -9.15907e-08 -9.15907e-08 3.53616e-07 3.53616e-07 -9.15907e-08 -9.15907e-08 3.53616e-07 3.53616e-07 3.53596e-07 3.53621e-07 -1.07041e-06 -1.07047e-06 3.53621e-07 3.53616e-07 -1.07047e-06 -1.07045e-06 -1.07041e-06 -1.07047e-06 2.04588e-06 2.04598e-06 -1.07047e-06 -1.07045e-06 2.04598e-06 2.04598e-06 3.53616e-07 3.53616e-07 -1.07045e-06 -1.07045e-06 3.53616e-07 3.53616e-07 -1.07045e-06 -1.07045e-06 -1.07045e-06 -1.07045e-06 2.04598e-06 2.04597e-06 -1.07045e-06 -1.07045e-06 2.04597e-06 2.04598e-06 2.04588e-06 2.04598e-06 8.09354e-06 8.09376e-06 2.04598e-06 2.04598e-06 8.09376e-06 8.0937e-06 8.09354e-06 8.09376e-06 -0.0001 -0.0001 8.09376e-06 8.0937e-06 -0.0001 -0.0001 2.04598e-06 2.04597e-06 8.0937e-06 8.09371e-06 2.04597e-06 2.04598e-06 8.09371e-06 8.09371e-06 8.0937e-06 8.09371e-06 -0.0001 -0.0001 8.09371e-06 8.09371e-06 -0.0001 -0.0001 3.53616e-07 3.53616e-07 -1.07045e-06 -1.07045e-06 3.53616e-07 3.53616e-07 -1.07045e-06 -1.07045e-06 -1.07045e-06 -1.07045e-06 2.04598e-06 2.04598e-06 -1.07045e-06 -1.07045e-06 2.04598e-06 2.04598e-06 3.53616e-07 3.53616e-07 -1.07045e-06 -1.07045e-06 3.53616e-07 3.53616e-07 -1.07045e-06 -1.07045e-06 -1.07045e-06 -1.07045e-06 2.04598e-06 2.04598e-06 -1.07045e-06 -1.07045e-06 2.04598e-06 2.04598e-06 2.04598e-06 2.04598e-06 8.09371e-06 8.09371e-06 2.04598e-06 2.04598e-06 8.09371e-06 8.09371e-06 8.09371e-06 8.09371e-06 -0.0001 -0.0001 8.09371e-06 8.09371e-06 -0.0001 -0.0001 2.04598e-06 2.04598e-06 8.09371e-06 8.09371e-06 2.04598e-06 2.04598e-06 8.09371e-06 8.09371e-06 8.09371e-06 8.09371e-06 -0.0001 -0.0001 8.09371e-06 8.09371e-06 -0.0001 -0.0001 -6.02575e-14 -1.27779e-13 1.98823e-13 2.17561e-13 -1.27779e-13 -1.09498e-13 2.17561e-13 2.14251e-13 1.98823e-13 2.17561e-13 -6.70448e-13 -6.75049e-13 2.17561e-13 2.14251e-13 -6.75049e-13 -6.73684e-13 -1.09498e-13 -1.15268e-13 2.14251e-13 2.14768e-13 -1.15268e-13 -1.13978e-13 2.14768e-13 2.14728e-13 2.14251e-13 2.14768e-13 -6.73684e-13 -6.73877e-13 2.14768e-13 2.14728e-13 -6.73877e-13 -6.73922e-13 -6.70448e-13 -6.75049e-13 2.10373e-12 2.10497e-12 -6.75049e-13 -6.73684e-13 2.10497e-12 2.10476e-12 2.10373e-12 2.10497e-12 -6.12686e-12 -6.12717e-12 2.10497e-12 2.10476e-12 -6.12717e-12 -6.12711e-12 -6.73684e-13 -6.73877e-13 2.10476e-12 2.10476e-12 -6.73877e-13 -6.73922e-13 2.10476e-12 2.10481e-12 2.10476e-12 2.10476e-12 -6.12711e-12 -6.12709e-12 2.10476e-12 2.10481e-12 -6.12709e-12 -6.12716e-12 -1.13978e-13 -1.14248e-13 2.14728e-13 2.14694e-13 -1.14248e-13 -1.14216e-13 2.14694e-13 2.14742e-13 2.14728e-13 2.14694e-13 -6.73922e-13 -6.73872e-13 2.14694e-13 2.14742e-13 -6.73872e-13 -6.73949e-13 -1.14216e-13 -1.1419e-13 2.14742e-13 2.14663e-13 -1.1419e-13 -1.14252e-13 2.14663e-13 2.1482e-13 2.14742e-13 2.14663e-13 -6.73949e-13 -6.73784e-13 2.14663e-13 2.1482e-13 -6.73784e-13 -6.74148e-13 -6.73922e-13 -6.73872e-13 2.10481e-12 2.10471e-12 -6.73872e-13 -6.73949e-13 2.10471e-12 2.10495e-12 2.10481e-12 2.10471e-12 -6.12716e-12 -6.12696e-12 2.10471e-12 2.10495e-12 -6.12696e-12 -6.12754e-12 -6.73949e-13 -6.73784e-13 2.10495e-12 2.10438e-12 -6.73784e-13 -6.74148e-13 2.10438e-12 2.10569e-12 2.10495e-12 2.10438e-12 -6.12754e-12 -6.12594e-12 2.10438e-12 2.10569e-12 -6.12594e-12 -6.13001e-12 -6.12686e-12 -6.12717e-12 1.48131e-11 1.48132e-11 -6.12717e-12 -6.12711e-12 1.48132e-11 1.48132e-11 1.48131e-11 1.48132e-11 -2.26952e-11 -2.26952e-11 1.48132e-11 1.48132e-11 -2.26952e-11 -2.26952e-11 -6.12711e-12 -6.12709e-12 1.48132e-11 1.48131e-11 -6.12709e-12 -6.12716e-12 1.48131e-11 1.48133e-11 1.48132e-11 1.48131e-11 -2.26952e-11 -2.26951e-11 1.48131e-11 1.48133e-11 -2.26951e-11 -2.26954e-11 -2.26952e-11 -2.26952e-11 -5.06521e-11 -5.06521e-11 -2.26952e-11 -2.26952e-11 -5.06521e-11 -5.06521e-11 -5.06521e-11 -5.06521e-11 6.77485e-10 6.77485e-10 -5.06521e-11 -5.06521e-11 6.77485e-10 6.77485e-10 -2.26952e-11 -2.26951e-11 -5.06521e-11 -5.06521e-11 -2.26951e-11 -2.26954e-11 -5.06521e-11 -5.06517e-11 -5.06521e-11 -5.06521e-11 6.77485e-10 6.77485e-10 -5.06521e-11 -5.06517e-11 6.77485e-10 6.77485e-10 -6.12716e-12 -6.12696e-12 1.48133e-11 1.48127e-11 -6.12696e-12 -6.12754e-12 1.48127e-11 1.48145e-11 1.48133e-11 1.48127e-11 -2.26954e-11 -2.26942e-11 1.48127e-11 1.48145e-11 -2.26942e-11 -2.26988e-11 -6.12754e-12 -6.12594e-12 1.48145e-11 1.48094e-11 -6.12594e-12 -6.13001e-12 1.48094e-11 1.4823e-11 1.48145e-11 1.48094e-11 -2.26988e-11 -2.26834e-11 1.48094e-11 1.4823e-11 -2.26834e-11 -2.27287e-11 -2.26954e-11 -2.26942e-11 -5.06517e-11 -5.0654e-11 -2.26942e-11 -2.26988e-11 -5.0654e-11 -5.0644e-11 -5.06517e-11 -5.0654e-11 6.77485e-10 6.7749e-10 -5.0654e-11 -5.0644e-11 6.7749e-10 6.7746e-10 -2.26988e-11 -2.26834e-11 -5.0644e-11 -5.06812e-11 -2.26834e-11 -2.27287e-11 -5.06812e-11 -5.05614e-11 -5.0644e-11 -5.06812e-11 6.7746e-10 6.77588e-10 -5.06812e-11 -5.05614e-11 6.77588e-10 6.77146e-10 -1.14252e-13 -1.1412e-13 2.1482e-13 2.14473e-13 -1.1412e-13 -1.14454e-13 2.14473e-13 2.15332e-13 2.1482e-13 2.14473e-13 -6.74148e-13 -6.73361e-13 2.14473e-13 2.15332e-13 -6.73361e-13 -6.75094e-13 -1.14454e-13 -1.13525e-13 2.15332e-13 2.13114e-13 -1.13525e-13 -1.15845e-13 2.13114e-13 2.1826e-13 2.15332e-13 2.13114e-13 -6.75094e-13 -6.71204e-13 2.13114e-13 2.1826e-13 -6.71204e-13 -6.80406e-13 -6.74148e-13 -6.73361e-13 2.10569e-12 2.10278e-12 -6.73361e-13 -6.75094e-13 2.10278e-12 2.10908e-12 2.10569e-12 2.10278e-12 -6.13001e-12 -6.12069e-12 2.10278e-12 2.10908e-12 -6.12069e-12 -6.13925e-12 -6.75094e-13 -6.71204e-13 2.10908e-12 2.09547e-12 -6.71204e-13 -6.80406e-13 2.09547e-12 2.12753e-12 2.10908e-12 2.09547e-12 -6.13925e-12 -6.1074e-12 2.09547e-12 2.12753e-12 -6.1074e-12 -6.17246e-12 -1.15845e-13 -1.10865e-13 2.1826e-13 2.07059e-13 -1.10865e-13 -1.22075e-13 2.07059e-13 2.30898e-13 2.1826e-13 2.07059e-13 -6.80406e-13 -6.54459e-13 2.07059e-13 2.30898e-13 -6.54459e-13 -7.57377e-13 -1.22075e-13 -1.02975e-13 2.30898e-13 1.7926e-13 -1.02975e-13 -6.91207e-14 1.7926e-13 2.13767e-13 2.30898e-13 1.7926e-13 -7.57377e-13 -5.16146e-13 1.7926e-13 2.13767e-13 -5.16146e-13 -2.89837e-13 -6.80406e-13 -6.54459e-13 2.12753e-12 2.02996e-12 -6.54459e-13 -7.57377e-13 2.02996e-12 2.37628e-12 2.12753e-12 2.02996e-12 -6.17246e-12 -5.89175e-12 2.02996e-12 2.37628e-12 -5.89175e-12 -7.38135e-12 -7.57377e-13 -5.16146e-13 2.37628e-12 1.50002e-12 -5.16146e-13 -2.89837e-13 1.50002e-12 1.87755e-12 2.37628e-12 1.50002e-12 -7.38135e-12 -3.68364e-12 1.50002e-12 1.87755e-12 -3.68364e-12 -3.86745e-14 -6.13001e-12 -6.12069e-12 1.4823e-11 1.47906e-11 -6.12069e-12 -6.13925e-12 1.47906e-11 1.48568e-11 1.4823e-11 1.47906e-11 -2.27287e-11 -2.26135e-11 1.47906e-11 1.48568e-11 -2.26135e-11 -2.28544e-11 -6.13925e-12 -6.1074e-12 1.48568e-11 1.4746e-11 -6.1074e-12 -6.17246e-12 1.4746e-11 1.4941e-11 1.48568e-11 1.4746e-11 -2.28544e-11 -2.24652e-11 1.4746e-11 1.4941e-11 -2.24652e-11 -2.30891e-11 -2.27287e-11 -2.26135e-11 -5.05614e-11 -5.08904e-11 -2.26135e-11 -2.28544e-11 -5.08904e-11 -5.01537e-11 -5.05614e-11 -5.08904e-11 6.77146e-10 6.7843e-10 -5.08904e-11 -5.01537e-11 6.7843e-10 6.75333e-10 -2.28544e-11 -2.24652e-11 -5.01537e-11 -5.14071e-11 -2.24652e-11 -2.30891e-11 -5.14071e-11 -4.9646e-11 -5.01537e-11 -5.14071e-11 6.75333e-10 6.8133e-10 -5.14071e-11 -4.9646e-11 6.8133e-10 6.71149e-10 -6.17246e-12 -5.89175e-12 1.4941e-11 1.41269e-11 -5.89175e-12 -7.38135e-12 1.41269e-11 1.82028e-11 1.4941e-11 1.41269e-11 -2.30891e-11 -2.02666e-11 1.41269e-11 1.82028e-11 -2.02666e-11 -3.67371e-11 -7.38135e-12 -3.68364e-12 1.82028e-11 6.15238e-12 -3.68364e-12 -3.86745e-14 6.15238e-12 1.16791e-11 1.82028e-11 6.15238e-12 -3.67371e-11 4.94647e-12 6.15238e-12 1.16791e-11 4.94647e-12 6.31193e-11 -2.30891e-11 -2.02666e-11 -4.9646e-11 -5.5746e-11 -2.02666e-11 -3.67371e-11 -5.5746e-11 -2.27167e-11 -4.9646e-11 -5.5746e-11 6.71149e-10 6.99741e-10 -5.5746e-11 -2.27167e-11 6.99741e-10 5.67851e-10 -3.67371e-11 4.94647e-12 -2.27167e-11 -1.37249e-10 4.94647e-12 6.31193e-11 -1.37249e-10 -4.81848e-11 -2.27167e-11 -1.37249e-10 5.67851e-10 8.76423e-10 -1.37249e-10 -4.81848e-11 8.76423e-10 1.74774e-09 6.77485e-10 6.77485e-10 -4.28682e-09 -4.28682e-09 6.77485e-10 6.77485e-10 -4.28682e-09 -4.28682e-09 -4.28682e-09 -4.28682e-09 2.13833e-08 2.13833e-08 -4.28682e-09 -4.28682e-09 2.13833e-08 2.13833e-08 6.77485e-10 6.77485e-10 -4.28682e-09 -4.28682e-09 6.77485e-10 6.77485e-10 -4.28682e-09 -4.28682e-09 -4.28682e-09 -4.28682e-09 2.13833e-08 2.13833e-08 -4.28682e-09 -4.28682e-09 2.13833e-08 2.13833e-08 2.13833e-08 2.13833e-08 -9.15907e-08 -9.15907e-08 2.13833e-08 2.13833e-08 -9.15907e-08 -9.15907e-08 -9.15907e-08 -9.15907e-08 3.53616e-07 3.53616e-07 -9.15907e-08 -9.15907e-08 3.53616e-07 3.53616e-07 2.13833e-08 2.13833e-08 -9.15907e-08 -9.15908e-08 2.13833e-08 2.13833e-08 -9.15908e-08 -9.15907e-08 -9.15907e-08 -9.15908e-08 3.53616e-07 3.53616e-07 -9.15908e-08 -9.15907e-08 3.53616e-07 3.53616e-07 6.77485e-10 6.7749e-10 -4.28682e-09 -4.28683e-09 6.7749e-10 6.7746e-10 -4.28683e-09 -4.28678e-09 -4.28682e-09 -4.28683e-09 2.13833e-08 2.13833e-08 -4.28683e-09 -4.28678e-09 2.13833e-08 2.13831e-08 6.7746e-10 6.77588e-10 -4