# vtk DataFile Version 3.0
#This file was generated by the deal.II library on 2022/11/2 at 18:38:15
ASCII
DATASET UNSTRUCTURED_GRID

POINTS 4096 double
0 0.5 0
0.03125 0.5 0
0 0.53125 0
0.03125 0.53125 0
0.03125 0.5 0
0.0625 0.5 0
0.03125 0.53125 0
0.0625 0.53125 0
0 0.53125 0
0.03125 0.53125 0
0 0.5625 0
0.03125 0.5625 0
0.03125 0.53125 0
0.0625 0.53125 0
0.03125 0.5625 0
0.0625 0.5625 0
0.0625 0.5 0
0.09375 0.5 0
0.0625 0.53125 0
0.09375 0.53125 0
0.09375 0.5 0
0.125 0.5 0
0.09375 0.53125 0
0.125 0.53125 0
0.0625 0.53125 0
0.09375 0.53125 0
0.0625 0.5625 0
0.09375 0.5625 0
0.09375 0.53125 0
0.125 0.53125 0
0.09375 0.5625 0
0.125 0.5625 0
0 0.5625 0
0.03125 0.5625 0
0 0.59375 0
0.03125 0.59375 0
0.03125 0.5625 0
0.0625 0.5625 0
0.03125 0.59375 0
0.0625 0.59375 0
0 0.59375 0
0.03125 0.59375 0
0 0.625 0
0.03125 0.625 0
0.03125 0.59375 0
0.0625 0.59375 0
0.03125 0.625 0
0.0625 0.625 0
0.0625 0.5625 0
0.09375 0.5625 0
0.0625 0.59375 0
0.09375 0.59375 0
0.09375 0.5625 0
0.125 0.5625 0
0.09375 0.59375 0
0.125 0.59375 0
0.0625 0.59375 0
0.09375 0.59375 0
0.0625 0.625 0
0.09375 0.625 0
0.09375 0.59375 0
0.125 0.59375 0
0.09375 0.625 0
0.125 0.625 0
0.125 0.5 0
0.15625 0.5 0
0.125 0.53125 0
0.15625 0.53125 0
0.15625 0.5 0
0.1875 0.5 0
0.15625 0.53125 0
0.1875 0.53125 0
0.125 0.53125 0
0.15625 0.53125 0
0.125 0.5625 0
0.15625 0.5625 0
0.15625 0.53125 0
0.1875 0.53125 0
0.15625 0.5625 0
0.1875 0.5625 0
0.1875 0.5 0
0.21875 0.5 0
0.1875 0.53125 0
0.21875 0.53125 0
0.21875 0.5 0
0.25 0.5 0
0.21875 0.53125 0
0.25 0.53125 0
0.1875 0.53125 0
0.21875 0.53125 0
0.1875 0.5625 0
0.21875 0.5625 0
0.21875 0.53125 0
0.25 0.53125 0
0.21875 0.5625 0
0.25 0.5625 0
0.125 0.5625 0
0.15625 0.5625 0
0.125 0.59375 0
0.15625 0.59375 0
0.15625 0.5625 0
0.1875 0.5625 0
0.15625 0.59375 0
0.1875 0.59375 0
0.125 0.59375 0
0.15625 0.59375 0
0.125 0.625 0
0.15625 0.625 0
0.15625 0.59375 0
0.1875 0.59375 0
0.15625 0.625 0
0.1875 0.625 0
0.1875 0.5625 0
0.21875 0.5625 0
0.1875 0.59375 0
0.21875 0.59375 0
0.21875 0.5625 0
0.25 0.5625 0
0.21875 0.59375 0
0.25 0.59375 0
0.1875 0.59375 0
0.21875 0.59375 0
0.1875 0.625 0
0.21875 0.625 0
0.21875 0.59375 0
0.25 0.59375 0
0.21875 0.625 0
0.25 0.625 0
0 0.625 0
0.03125 0.625 0
0 0.65625 0
0.03125 0.65625 0
0.03125 0.625 0
0.0625 0.625 0
0.03125 0.65625 0
0.0625 0.65625 0
0 0.65625 0
0.03125 0.65625 0
0 0.6875 0
0.03125 0.6875 0
0.03125 0.65625 0
0.0625 0.65625 0
0.03125 0.6875 0
0.0625 0.6875 0
0.0625 0.625 0
0.09375 0.625 0
0.0625 0.65625 0
0.09375 0.65625 0
0.09375 0.625 0
0.125 0.625 0
0.09375 0.65625 0
0.125 0.65625 0
0.0625 0.65625 0
0.09375 0.65625 0
0.0625 0.6875 0
0.09375 0.6875 0
0.09375 0.65625 0
0.125 0.65625 0
0.09375 0.6875 0
0.125 0.6875 0
0 0.6875 0
0.03125 0.6875 0
0 0.71875 0
0.03125 0.71875 0
0.03125 0.6875 0
0.0625 0.6875 0
0.03125 0.71875 0
0.0625 0.71875 0
0 0.71875 0
0.03125 0.71875 0
0 0.75 0
0.03125 0.75 0
0.03125 0.71875 0
0.0625 0.71875 0
0.03125 0.75 0
0.0625 0.75 0
0.0625 0.6875 0
0.09375 0.6875 0
0.0625 0.71875 0
0.09375 0.71875 0
0.09375 0.6875 0
0.125 0.6875 0
0.09375 0.71875 0
0.125 0.71875 0
0.0625 0.71875 0
0.09375 0.71875 0
0.0625 0.75 0
0.09375 0.75 0
0.09375 0.71875 0
0.125 0.71875 0
0.09375 0.75 0
0.125 0.75 0
0.125 0.625 0
0.15625 0.625 0
0.125 0.65625 0
0.15625 0.65625 0
0.15625 0.625 0
0.1875 0.625 0
0.15625 0.65625 0
0.1875 0.65625 0
0.125 0.65625 0
0.15625 0.65625 0
0.125 0.6875 0
0.15625 0.6875 0
0.15625 0.65625 0
0.1875 0.65625 0
0.15625 0.6875 0
0.1875 0.6875 0
0.1875 0.625 0
0.21875 0.625 0
0.1875 0.65625 0
0.21875 0.65625 0
0.21875 0.625 0
0.25 0.625 0
0.21875 0.65625 0
0.25 0.65625 0
0.1875 0.65625 0
0.21875 0.65625 0
0.1875 0.6875 0
0.21875 0.6875 0
0.21875 0.65625 0
0.25 0.65625 0
0.21875 0.6875 0
0.25 0.6875 0
0.125 0.6875 0
0.15625 0.6875 0
0.125 0.71875 0
0.15625 0.71875 0
0.15625 0.6875 0
0.1875 0.6875 0
0.15625 0.71875 0
0.1875 0.71875 0
0.125 0.71875 0
0.15625 0.71875 0
0.125 0.75 0
0.15625 0.75 0
0.15625 0.71875 0
0.1875 0.71875 0
0.15625 0.75 0
0.1875 0.75 0
0.1875 0.6875 0
0.21875 0.6875 0
0.1875 0.71875 0
0.21875 0.71875 0
0.21875 0.6875 0
0.25 0.6875 0
0.21875 0.71875 0
0.25 0.71875 0
0.1875 0.71875 0
0.21875 0.71875 0
0.1875 0.75 0
0.21875 0.75 0
0.21875 0.71875 0
0.25 0.71875 0
0.21875 0.75 0
0.25 0.75 0
0.25 0.5 0
0.28125 0.5 0
0.25 0.53125 0
0.28125 0.53125 0
0.28125 0.5 0
0.3125 0.5 0
0.28125 0.53125 0
0.3125 0.53125 0
0.25 0.53125 0
0.28125 0.53125 0
0.25 0.5625 0
0.28125 0.5625 0
0.28125 0.53125 0
0.3125 0.53125 0
0.28125 0.5625 0
0.3125 0.5625 0
0.3125 0.5 0
0.34375 0.5 0
0.3125 0.53125 0
0.34375 0.53125 0
0.34375 0.5 0
0.375 0.5 0
0.34375 0.53125 0
0.375 0.53125 0
0.3125 0.53125 0
0.34375 0.53125 0
0.3125 0.5625 0
0.34375 0.5625 0
0.34375 0.53125 0
0.375 0.53125 0
0.34375 0.5625 0
0.375 0.5625 0
0.25 0.5625 0
0.28125 0.5625 0
0.25 0.59375 0
0.28125 0.59375 0
0.28125 0.5625 0
0.3125 0.5625 0
0.28125 0.59375 0
0.3125 0.59375 0
0.25 0.59375 0
0.28125 0.59375 0
0.25 0.625 0
0.28125 0.625 0
0.28125 0.59375 0
0.3125 0.59375 0
0.28125 0.625 0
0.3125 0.625 0
0.3125 0.5625 0
0.34375 0.5625 0
0.3125 0.59375 0
0.34375 0.59375 0
0.34375 0.5625 0
0.375 0.5625 0
0.34375 0.59375 0
0.375 0.59375 0
0.3125 0.59375 0
0.34375 0.59375 0
0.3125 0.625 0
0.34375 0.625 0
0.34375 0.59375 0
0.375 0.59375 0
0.34375 0.625 0
0.375 0.625 0
0.375 0.5 0
0.40625 0.5 0
0.375 0.53125 0
0.40625 0.53125 0
0.40625 0.5 0
0.4375 0.5 0
0.40625 0.53125 0
0.4375 0.53125 0
0.375 0.53125 0
0.40625 0.53125 0
0.375 0.5625 0
0.40625 0.5625 0
0.40625 0.53125 0
0.4375 0.53125 0
0.40625 0.5625 0
0.4375 0.5625 0
0.4375 0.5 0
0.46875 0.5 0
0.4375 0.53125 0
0.46875 0.53125 0
0.46875 0.5 0
0.5 0.5 0
0.46875 0.53125 0
0.5 0.53125 0
0.4375 0.53125 0
0.46875 0.53125 0
0.4375 0.5625 0
0.46875 0.5625 0
0.46875 0.53125 0
0.5 0.53125 0
0.46875 0.5625 0
0.5 0.5625 0
0.375 0.5625 0
0.40625 0.5625 0
0.375 0.59375 0
0.40625 0.59375 0
0.40625 0.5625 0
0.4375 0.5625 0
0.40625 0.59375 0
0.4375 0.59375 0
0.375 0.59375 0
0.40625 0.59375 0
0.375 0.625 0
0.40625 0.625 0
0.40625 0.59375 0
0.4375 0.59375 0
0.40625 0.625 0
0.4375 0.625 0
0.4375 0.5625 0
0.46875 0.5625 0
0.4375 0.59375 0
0.46875 0.59375 0
0.46875 0.5625 0
0.5 0.5625 0
0.46875 0.59375 0
0.5 0.59375 0
0.4375 0.59375 0
0.46875 0.59375 0
0.4375 0.625 0
0.46875 0.625 0
0.46875 0.59375 0
0.5 0.59375 0
0.46875 0.625 0
0.5 0.625 0
0.25 0.625 0
0.28125 0.625 0
0.25 0.65625 0
0.28125 0.65625 0
0.28125 0.625 0
0.3125 0.625 0
0.28125 0.65625 0
0.3125 0.65625 0
0.25 0.65625 0
0.28125 0.65625 0
0.25 0.6875 0
0.28125 0.6875 0
0.28125 0.65625 0
0.3125 0.65625 0
0.28125 0.6875 0
0.3125 0.6875 0
0.3125 0.625 0
0.34375 0.625 0
0.3125 0.65625 0
0.34375 0.65625 0
0.34375 0.625 0
0.375 0.625 0
0.34375 0.65625 0
0.375 0.65625 0
0.3125 0.65625 0
0.34375 0.65625 0
0.3125 0.6875 0
0.34375 0.6875 0
0.34375 0.65625 0
0.375 0.65625 0
0.34375 0.6875 0
0.375 0.6875 0
0.25 0.6875 0
0.28125 0.6875 0
0.25 0.71875 0
0.28125 0.71875 0
0.28125 0.6875 0
0.3125 0.6875 0
0.28125 0.71875 0
0.3125 0.71875 0
0.25 0.71875 0
0.28125 0.71875 0
0.25 0.75 0
0.28125 0.75 0
0.28125 0.71875 0
0.3125 0.71875 0
0.28125 0.75 0
0.3125 0.75 0
0.3125 0.6875 0
0.34375 0.6875 0
0.3125 0.71875 0
0.34375 0.71875 0
0.34375 0.6875 0
0.375 0.6875 0
0.34375 0.71875 0
0.375 0.71875 0
0.3125 0.71875 0
0.34375 0.71875 0
0.3125 0.75 0
0.34375 0.75 0
0.34375 0.71875 0
0.375 0.71875 0
0.34375 0.75 0
0.375 0.75 0
0.375 0.625 0
0.40625 0.625 0
0.375 0.65625 0
0.40625 0.65625 0
0.40625 0.625 0
0.4375 0.625 0
0.40625 0.65625 0
0.4375 0.65625 0
0.375 0.65625 0
0.40625 0.65625 0
0.375 0.6875 0
0.40625 0.6875 0
0.40625 0.65625 0
0.4375 0.65625 0
0.40625 0.6875 0
0.4375 0.6875 0
0.4375 0.625 0
0.46875 0.625 0
0.4375 0.65625 0
0.46875 0.65625 0
0.46875 0.625 0
0.5 0.625 0
0.46875 0.65625 0
0.5 0.65625 0
0.4375 0.65625 0
0.46875 0.65625 0
0.4375 0.6875 0
0.46875 0.6875 0
0.46875 0.65625 0
0.5 0.65625 0
0.46875 0.6875 0
0.5 0.6875 0
0.375 0.6875 0
0.40625 0.6875 0
0.375 0.71875 0
0.40625 0.71875 0
0.40625 0.6875 0
0.4375 0.6875 0
0.40625 0.71875 0
0.4375 0.71875 0
0.375 0.71875 0
0.40625 0.71875 0
0.375 0.75 0
0.40625 0.75 0
0.40625 0.71875 0
0.4375 0.71875 0
0.40625 0.75 0
0.4375 0.75 0
0.4375 0.6875 0
0.46875 0.6875 0
0.4375 0.71875 0
0.46875 0.71875 0
0.46875 0.6875 0
0.5 0.6875 0
0.46875 0.71875 0
0.5 0.71875 0
0.4375 0.71875 0
0.46875 0.71875 0
0.4375 0.75 0
0.46875 0.75 0
0.46875 0.71875 0
0.5 0.71875 0
0.46875 0.75 0
0.5 0.75 0
0 0.75 0
0.03125 0.75 0
0 0.78125 0
0.03125 0.78125 0
0.03125 0.75 0
0.0625 0.75 0
0.03125 0.78125 0
0.0625 0.78125 0
0 0.78125 0
0.03125 0.78125 0
0 0.8125 0
0.03125 0.8125 0
0.03125 0.78125 0
0.0625 0.78125 0
0.03125 0.8125 0
0.0625 0.8125 0
0.0625 0.75 0
0.09375 0.75 0
0.0625 0.78125 0
0.09375 0.78125 0
0.09375 0.75 0
0.125 0.75 0
0.09375 0.78125 0
0.125 0.78125 0
0.0625 0.78125 0
0.09375 0.78125 0
0.0625 0.8125 0
0.09375 0.8125 0
0.09375 0.78125 0
0.125 0.78125 0
0.09375 0.8125 0
0.125 0.8125 0
0 0.8125 0
0.03125 0.8125 0
0 0.84375 0
0.03125 0.84375 0
0.03125 0.8125 0
0.0625 0.8125 0
0.03125 0.84375 0
0.0625 0.84375 0
0 0.84375 0
0.03125 0.84375 0
0 0.875 0
0.03125 0.875 0
0.03125 0.84375 0
0.0625 0.84375 0
0.03125 0.875 0
0.0625 0.875 0
0.0625 0.8125 0
0.09375 0.8125 0
0.0625 0.84375 0
0.09375 0.84375 0
0.09375 0.8125 0
0.125 0.8125 0
0.09375 0.84375 0
0.125 0.84375 0
0.0625 0.84375 0
0.09375 0.84375 0
0.0625 0.875 0
0.09375 0.875 0
0.09375 0.84375 0
0.125 0.84375 0
0.09375 0.875 0
0.125 0.875 0
0.125 0.75 0
0.15625 0.75 0
0.125 0.78125 0
0.15625 0.78125 0
0.15625 0.75 0
0.1875 0.75 0
0.15625 0.78125 0
0.1875 0.78125 0
0.125 0.78125 0
0.15625 0.78125 0
0.125 0.8125 0
0.15625 0.8125 0
0.15625 0.78125 0
0.1875 0.78125 0
0.15625 0.8125 0
0.1875 0.8125 0
0.1875 0.75 0
0.21875 0.75 0
0.1875 0.78125 0
0.21875 0.78125 0
0.21875 0.75 0
0.25 0.75 0
0.21875 0.78125 0
0.25 0.78125 0
0.1875 0.78125 0
0.21875 0.78125 0
0.1875 0.8125 0
0.21875 0.8125 0
0.21875 0.78125 0
0.25 0.78125 0
0.21875 0.8125 0
0.25 0.8125 0
0.125 0.8125 0
0.15625 0.8125 0
0.125 0.84375 0
0.15625 0.84375 0
0.15625 0.8125 0
[...]
POINT_DATA 4096
SCALARS x_dis double 1
LOOKUP_TABLE default
-7.20448e-15 -7.20532e-15 2.63272e-14 2.84424e-14 -7.20532e-15 -6.97584e-15 2.84424e-14 2.71437e-14 2.63272e-14 2.84424e-14 -1.09205e-13 -1.09246e-13 2.84424e-14 2.71437e-14 -1.09246e-13 -1.0609e-13 -6.97584e-15 -7.11114e-15 2.71437e-14 2.77085e-14 -7.11114e-15 -7.0484e-15 2.77085e-14 2.74815e-14 2.71437e-14 2.77085e-14 -1.0609e-13 -1.07904e-13 2.77085e-14 2.74815e-14 -1.07904e-13 -1.07102e-13 -1.09205e-13 -1.09246e-13 3.99057e-13 4.31186e-13 -1.09246e-13 -1.0609e-13 4.31186e-13 4.12862e-13 3.99057e-13 4.31186e-13 -1.65517e-12 -1.65606e-12 4.31186e-13 4.12862e-13 -1.65606e-12 -1.61359e-12 -1.0609e-13 -1.07904e-13 4.12862e-13 4.20448e-13 -1.07904e-13 -1.07102e-13 4.20448e-13 4.17591e-13 4.12862e-13 4.20448e-13 -1.61359e-12 -1.63733e-12 4.20448e-13 4.17591e-13 -1.63733e-12 -1.62732e-12 -7.0484e-15 -7.07433e-15 2.74815e-14 2.75661e-14 -7.07433e-15 -7.06458e-15 2.75661e-14 2.75362e-14 2.74815e-14 2.75661e-14 -1.07102e-13 -1.07415e-13 2.75661e-14 2.75362e-14 -1.07415e-13 -1.07303e-13 -7.06458e-15 -7.06808e-15 2.75362e-14 2.75463e-14 -7.06808e-15 -7.06688e-15 2.75463e-14 2.7543e-14 2.75362e-14 2.75463e-14 -1.07303e-13 -1.07341e-13 2.75463e-14 2.7543e-14 -1.07341e-13 -1.07329e-13 -1.07102e-13 -1.07415e-13 4.17591e-13 4.18579e-13 -1.07415e-13 -1.07303e-13 4.18579e-13 4.18252e-13 4.17591e-13 4.18579e-13 -1.62732e-12 -1.63099e-12 4.18579e-13 4.18252e-13 -1.63099e-12 -1.62979e-12 -1.07303e-13 -1.07341e-13 4.18252e-13 4.18355e-13 -1.07341e-13 -1.07329e-13 4.18355e-13 4.18324e-13 4.18252e-13 4.18355e-13 -1.62979e-12 -1.63016e-12 4.18355e-13 4.18324e-13 -1.63016e-12 -1.63005e-12 -1.65517e-12 -1.65606e-12 6.04818e-12 6.53546e-12 -1.65606e-12 -1.61359e-12 6.53546e-12 6.28026e-12 6.04818e-12 6.53546e-12 -2.50835e-11 -2.50998e-11 6.53546e-12 6.28026e-12 -2.50998e-11 -2.45431e-11 -1.61359e-12 -1.63733e-12 6.28026e-12 6.3801e-12 -1.63733e-12 -1.62732e-12 6.3801e-12 6.34504e-12 6.28026e-12 6.3801e-12 -2.45431e-11 -2.48464e-11 6.3801e-12 6.34504e-12 -2.48464e-11 -2.47224e-11 -2.50835e-11 -2.50998e-11 9.16572e-11 9.90369e-11 -2.50998e-11 -2.45431e-11 9.90369e-11 9.55371e-11 9.16572e-11 9.90369e-11 -3.80085e-10 -3.80333e-10 9.90369e-11 9.55371e-11 -3.80333e-10 -3.73331e-10 -2.45431e-11 -2.48464e-11 9.55371e-11 9.68228e-11 -2.48464e-11 -2.47224e-11 9.68228e-11 9.63988e-11 9.55371e-11 9.68228e-11 -3.73331e-10 -3.77065e-10 9.68228e-11 9.63988e-11 -3.77065e-10 -3.75581e-10 -1.62732e-12 -1.63099e-12 6.34504e-12 6.35619e-12 -1.63099e-12 -1.62979e-12 6.35619e-12 6.35286e-12 6.34504e-12 6.35619e-12 -2.47224e-11 -2.47676e-11 6.35619e-12 6.35286e-12 -2.47676e-11 -2.47526e-11 -1.62979e-12 -1.63016e-12 6.35286e-12 6.3538e-12 -1.63016e-12 -1.63005e-12 6.3538e-12 6.35355e-12 6.35286e-12 6.3538e-12 -2.47526e-11 -2.47573e-11 6.3538e-12 6.35355e-12 -2.47573e-11 -2.47559e-11 -2.47224e-11 -2.47676e-11 9.63988e-11 9.65283e-11 -2.47676e-11 -2.47526e-11 9.65283e-11 9.64911e-11 9.63988e-11 9.65283e-11 -3.75581e-10 -3.76106e-10 9.65283e-11 9.64911e-11 -3.76106e-10 -3.75935e-10 -2.47526e-11 -2.47573e-11 9.64911e-11 9.65013e-11 -2.47573e-11 -2.47559e-11 9.65013e-11 9.64986e-11 9.64911e-11 9.65013e-11 -3.75935e-10 -3.75988e-10 9.65013e-11 9.64986e-11 -3.75988e-10 -3.75972e-10 -7.06688e-15 -7.06727e-15 2.7543e-14 2.75441e-14 -7.06727e-15 -7.06716e-15 2.75441e-14 2.75437e-14 2.7543e-14 2.75441e-14 -1.07329e-13 -1.07333e-13 2.75441e-14 2.75437e-14 -1.07333e-13 -1.07332e-13 -7.06716e-15 -7.06712e-15 2.75437e-14 2.75438e-14 -7.06712e-15 -7.06747e-15 2.75438e-14 2.75438e-14 2.75437e-14 2.75438e-14 -1.07332e-13 -1.07332e-13 2.75438e-14 2.75438e-14 -1.07332e-13 -1.07332e-13 -1.07329e-13 -1.07333e-13 4.18324e-13 4.18333e-13 -1.07333e-13 -1.07332e-13 4.18333e-13 4.18331e-13 4.18324e-13 4.18333e-13 -1.63005e-12 -1.63008e-12 4.18333e-13 4.18331e-13 -1.63008e-12 -1.63007e-12 -1.07332e-13 -1.07332e-13 4.18331e-13 4.18331e-13 -1.07332e-13 -1.07332e-13 4.18331e-13 4.18331e-13 4.18331e-13 4.18331e-13 -1.63007e-12 -1.63008e-12 4.18331e-13 4.18331e-13 -1.63008e-12 -1.63008e-12 -7.06747e-15 -7.06585e-15 2.75438e-14 2.75438e-14 -7.06585e-15 -7.0732e-15 2.75438e-14 2.75434e-14 2.75438e-14 2.75438e-14 -1.07332e-13 -1.07332e-13 2.75438e-14 2.75434e-14 -1.07332e-13 -1.07332e-13 -7.0732e-15 -7.04e-15 2.75434e-14 2.75476e-14 -7.04e-15 -7.18938e-15 2.75476e-14 2.7518e-14 2.75434e-14 2.75476e-14 -1.07332e-13 -1.0733e-13 2.75476e-14 2.7518e-14 -1.0733e-13 -1.07339e-13 -1.07332e-13 -1.07332e-13 4.18331e-13 4.18331e-13 -1.07332e-13 -1.07332e-13 4.18331e-13 4.18331e-13 4.18331e-13 4.18331e-13 -1.63008e-12 -1.63008e-12 4.18331e-13 4.18331e-13 -1.63008e-12 -1.63008e-12 -1.07332e-13 -1.0733e-13 4.18331e-13 4.18332e-13 -1.0733e-13 -1.07339e-13 4.18332e-13 4.18331e-13 4.18331e-13 4.18332e-13 -1.63008e-12 -1.63008e-12 4.18332e-13 4.18331e-13 -1.63008e-12 -1.63008e-12 -1.63005e-12 -1.63008e-12 6.35355e-12 6.35361e-12 -1.63008e-12 -1.63007e-12 6.35361e-12 6.3536e-12 6.35355e-12 6.35361e-12 -2.47559e-11 -2.47563e-11 6.35361e-12 6.3536e-12 -2.47563e-11 -2.47562e-11 -1.63007e-12 -1.63008e-12 6.3536e-12 6.3536e-12 -1.63008e-12 -1.63008e-12 6.3536e-12 6.3536e-12 6.3536e-12 6.3536e-12 -2.47562e-11 -2.47562e-11 6.3536e-12 6.3536e-12 -2.47562e-11 -2.47562e-11 -2.47559e-11 -2.47563e-11 9.64986e-11 9.64993e-11 -2.47563e-11 -2.47562e-11 9.64993e-11 9.64991e-11 9.64986e-11 9.64993e-11 -3.75972e-10 -3.75977e-10 9.64993e-11 9.64991e-11 -3.75977e-10 -3.75975e-10 -2.47562e-11 -2.47562e-11 9.64991e-11 9.64991e-11 -2.47562e-11 -2.47562e-11 9.64991e-11 9.64991e-11 9.64991e-11 9.64991e-11 -3.75975e-10 -3.75976e-10 9.64991e-11 9.64991e-11 -3.75976e-10 -3.75976e-10 -1.63008e-12 -1.63008e-12 6.3536e-12 6.3536e-12 -1.63008e-12 -1.63008e-12 6.3536e-12 6.3536e-12 6.3536e-12 6.3536e-12 -2.47562e-11 -2.47562e-11 6.3536e-12 6.3536e-12 -2.47562e-11 -2.47562e-11 -1.63008e-12 -1.63008e-12 6.3536e-12 6.3536e-12 -1.63008e-12 -1.63008e-12 6.3536e-12 6.3536e-12 6.3536e-12 6.3536e-12 -2.47562e-11 -2.47562e-11 6.3536e-12 6.3536e-12 -2.47562e-11 -2.47562e-11 -2.47562e-11 -2.47562e-11 9.64991e-11 9.64991e-11 -2.47562e-11 -2.47562e-11 9.64991e-11 9.64991e-11 9.64991e-11 9.64991e-11 -3.75976e-10 -3.75976e-10 9.64991e-11 9.64991e-11 -3.75976e-10 -3.75976e-10 -2.47562e-11 -2.47562e-11 9.64991e-11 9.64991e-11 -2.47562e-11 -2.47562e-11 9.64991e-11 9.64991e-11 9.64991e-11 9.64991e-11 -3.75976e-10 -3.75976e-10 9.64991e-11 9.64991e-11 -3.75976e-10 -3.75976e-10 -3.80085e-10 -3.80333e-10 1.38887e-09 1.50038e-09 -3.80333e-10 -3.73331e-10 1.50038e-09 1.45342e-09 1.38887e-09 1.50038e-09 -5.75859e-09 -5.76168e-09 1.50038e-09 1.45342e-09 -5.76168e-09 -5.67942e-09 -3.73331e-10 -3.77065e-10 1.45342e-09 1.46951e-09 -3.77065e-10 -3.75581e-10 1.46951e-09 1.46452e-09 1.45342e-09 1.46951e-09 -5.67942e-09 -5.72224e-09 1.46951e-09 1.46452e-09 -5.72224e-09 -5.70568e-09 -5.75859e-09 -5.76168e-09 2.10423e-08 2.27241e-08 -5.76168e-09 -5.67942e-09 2.27241e-08 2.2113e-08 2.10423e-08 2.27241e-08 -8.72314e-08 -8.72621e-08 2.27241e-08 2.2113e-08 -8.72621e-08 -8.64073e-08 -5.67942e-09 -5.72224e-09 2.2113e-08 2.23045e-08 -5.72224e-09 -5.70568e-09 2.23045e-08 2.2249e-08 2.2113e-08 2.23045e-08 -8.64073e-08 -8.68366e-08 2.23045e-08 2.2249e-08 -8.68366e-08 -8.66763e-08 -3.75581e-10 -3.76106e-10 1.46452e-09 1.46597e-09 -3.76106e-10 -3.75935e-10 1.46597e-09 1.46557e-09 1.46452e-09 1.46597e-09 -5.70568e-09 -5.71132e-09 1.46597e-09 1.46557e-09 -5.71132e-09 -5.70954e-09 -3.75935e-10 -3.75988e-10 1.46557e-09 1.46568e-09 -3.75988e-10 -3.75972e-10 1.46568e-09 1.46565e-09 1.46557e-09 1.46568e-09 -5.70954e-09 -5.71007e-09 1.46568e-09 1.46565e-09 -5.71007e-09 -5.70992e-09 -5.70568e-09 -5.71132e-09 2.2249e-08 2.22642e-08 -5.71132e-09 -5.70954e-09 2.22642e-08 2.22602e-08 2.2249e-08 2.22642e-08 -8.66763e-08 -8.67291e-08 2.22642e-08 2.22602e-08 -8.67291e-08 -8.67129e-08 -5.70954e-09 -5.71007e-09 2.22602e-08 2.22612e-08 -5.71007e-09 -5.70992e-09 2.22612e-08 2.2261e-08 2.22602e-08 2.22612e-08 -8.67129e-08 -8.67176e-08 2.22612e-08 2.2261e-08 -8.67176e-08 -8.67163e-08 -8.72314e-08 -8.72621e-08 3.18726e-07 3.44087e-07 -8.72621e-08 -8.64073e-08 3.44087e-07 3.36445e-07 3.18726e-07 3.44087e-07 -1.32104e-06 -1.32128e-06 3.44087e-07 3.36445e-07 -1.32128e-06 -1.31461e-06 -8.64073e-08 -8.68366e-08 3.36445e-07 3.38561e-07 -8.68366e-08 -8.66763e-08 3.38561e-07 3.38003e-07 3.36445e-07 3.38561e-07 -1.31461e-06 -1.31782e-06 3.38561e-07 3.38003e-07 -1.31782e-06 -1.31667e-06 -1.32104e-06 -1.32128e-06 4.82641e-06 5.2086e-06 -1.32128e-06 -1.31461e-06 5.2086e-06 5.11895e-06 4.82641e-06 5.2086e-06 -2e-05 -2e-05 5.2086e-06 5.11895e-06 -2e-05 -2e-05 -1.31461e-06 -1.31782e-06 5.11895e-06 5.13948e-06 -1.31782e-06 -1.31667e-06 5.13948e-06 5.1348e-06 5.11895e-06 5.13948e-06 -2e-05 -2e-05 5.13948e-06 5.1348e-06 -2e-05 -2e-05 -8.66763e-08 -8.67291e-08 3.38003e-07 3.38145e-07 -8.67291e-08 -8.67129e-08 3.38145e-07 3.3811e-07 3.38003e-07 3.38145e-07 -1.31667e-06 -1.31703e-06 3.38145e-07 3.3811e-07 -1.31703e-06 -1.31692e-06 -8.67129e-08 -8.67176e-08 3.3811e-07 3.38118e-07 -8.67176e-08 -8.67163e-08 3.38118e-07 3.38116e-07 3.3811e-07 3.38118e-07 -1.31692e-06 -1.31695e-06 3.38118e-07 3.38116e-07 -1.31695e-06 -1.31695e-06 -1.31667e-06 -1.31703e-06 5.1348e-06 5.13586e-06 -1.31703e-06 -1.31692e-06 5.13586e-06 5.13562e-06 5.1348e-06 5.13586e-06 -2e-05 -2e-05 5.13586e-06 5.13562e-06 -2e-05 -2e-05 -1.31692e-06 -1.31695e-06 5.13562e-06 5.13567e-06 -1.31695e-06 -1.31695e-06 5.13567e-06 5.13566e-06 5.13562e-06 5.13567e-06 -2e-05 -2e-05 5.13567e-06 5.13566e-06 -2e-05 -2e-05 -3.75972e-10 -3.75977e-10 1.46565e-09 1.46566e-09 -3.75977e-10 -3.75975e-10 1.46566e-09 1.46565e-09 1.46565e-09 1.46566e-09 -5.70992e-09 -5.70996e-09 1.46566e-09 1.46565e-09 -5.70996e-09 -5.70995e-09 -3.75975e-10 -3.75976e-10 1.46565e-09 1.46565e-09 -3.75976e-10 -3.75976e-10 1.46565e-09 1.46565e-09 1.46565e-09 1.46565e-09 -5.70995e-09 -5.70995e-09 1.46565e-09 1.46565e-09 -5.70995e-09 -5.70995e-09 -5.70992e-09 -5.70996e-09 2.2261e-08 2.22611e-08 -5.70996e-09 -5.70995e-09 2.22611e-08 2.2261e-08 2.2261e-08 2.22611e-08 -8.67163e-08 -8.67167e-08 2.22611e-08 2.2261e-08 -8.67167e-08 -8.67166e-08 -5.70995e-09 -5.70995e-09 2.2261e-08 2.2261e-08 -5.70995e-09 -5.70995e-09 2.2261e-08 2.2261e-08 2.2261e-08 2.2261e-08 -8.67166e-08 -8.67166e-08 2.2261e-08 2.2261e-08 -8.67166e-08 -8.67166e-08 -3.75976e-10 -3.75976e-10 1.46565e-09 1.46565e-09 -3.75976e-10 -3.75976e-10 1.46565e-09 1.46565e-09 1.46565e-09 1.46565e-09 -5.70995e-09 -5.70995e-09 1.46565e-09 1.46565e-09 -5.70995e-09 -5.70995e-09 -3.75976e-10 -3.75976e-10 1.46565e-09 1.46565e-09 -3.75976e-10 -3.75976e-10 1.46565e-09 1.46565e-09 1.46565e-09 1.46565e-09 -5.70995e-09 -5.70995e-09 1.46565e-09 1.46565e-09 -5.70995e-09 -5.70995e-09 -5.70995e-09 -5.70995e-09 2.2261e-08 2.2261e-08 -5.70995e-09 -5.70995e-09 2.2261e-08 2.2261e-08 2.2261e-08 2.2261e-08 -8.67166e-08 -8.67166e-08 2.2261e-08 2.2261e-08 -8.67166e-08 -8.67166e-08 -5.70995e-09 -5.70995e-09 2.2261e-08 2.2261e-08 -5.70995e-09 -5.70995e-09 2.2261e-08 2.2261e-08 2.2261e-08 2.2261e-08 -8.67166e-08 -8.67166e-08 2.2261e-08 2.2261e-08 -8.67166e-08 -8.67166e-08 -8.67163e-08 -8.67167e-08 3.38116e-07 3.38117e-07 -8.67167e-08 -8.67166e-08 3.38117e-07 3.38117e-07 3.38116e-07 3.38117e-07 -1.31695e-06 -1.31695e-06 3.38117e-07 3.38117e-07 -1.31695e-06 -1.31695e-06 -8.67166e-08 -8.67166e-08 3.38117e-07 3.38117e-07 -8.67166e-08 -8.67166e-08 3.38117e-07 3.38117e-07 3.38117e-07 3.38117e-07 -1.31695e-06 -1.31695e-06 3.38117e-07 3.38117e-07 -1.31695e-06 -1.31695e-06 -1.31695e-06 -1.31695e-06 5.13566e-06 5.13567e-06 -1.31695e-06 -1.31695e-06 5.13567e-06 5.13566e-06 5.13566e-06 5.13567e-06 -2e-05 -2e-05 5.13567e-06 5.13566e-06 -2e-05 -2e-05 -1.31695e-06 -1.31695e-06 5.13566e-06 5.13566e-06 -1.31695e-06 -1.31695e-06 5.13566e-06 5.13566e-06 5.13566e-06 5.13566e-06 -2e-05 -2e-05 5.13566e-06 5.13566e-06 -2e-05 -2e-05 -8.67166e-08 -8.67166e-08 3.38117e-07 3.38117e-07 -8.67166e-08 -8.67166e-08 3.38117e-07 3.38117e-07 3.38117e-07 3.38117e-07 -1.31695e-06 -1.31695e-06 3.38117e-07 3.38117e-07 -1.31695e-06 -1.31695e-06 -8.67166e-08 -8.67166e-08 3.38117e-07 3.38117e-07 -8.67166e-08 -8.67166e-08 3.38117e-07 3.38117e-07 3.38117e-07 3.38117e-07 -1.31695e-06 -1.31695e-06 3.38117e-07 3.38117e-07 -1.31695e-06 -1.31695e-06 -1.31695e-06 -1.31695e-06 5.13566e-06 5.13566e-06 -1.31695e-06 -1.31695e-06 5.13566e-06 5.13566e-06 5.13566e-06 5.13566e-06 -2e-05 -2e-05 5.13566e-06 5.13566e-06 -2e-05 -2e-05 -1.31695e-06 -1.31695e-06 5.13566e-06 5.13566e-06 -1.31695e-06 -1.31695e-06 5.13566e-06 5.13566e-06 5.13566e-06 5.13566e-06 -2e-05 -2e-05 5.13566e-06 5.13566e-06 -2e-05 -2e-05 -7.18938e-15 -1.57009e-14 2.7518e-14 2.97583e-14 -1.57009e-14 -1.37662e-14 2.97583e-14 2.92787e-14 2.7518e-14 2.97583e-14 -1.07339e-13 -1.07904e-13 2.97583e-14 2.92787e-14 -1.07904e-13 -1.07772e-13 -1.37662e-14 -1.42285e-14 2.92787e-14 2.93785e-14 -1.42285e-14 -1.41209e-14 2.93785e-14 2.93583e-14 2.92787e-14 2.93785e-14 -1.07772e-13 -1.07804e-13 2.93785e-14 2.93583e-14 -1.07804e-13 -1.07796e-13 -1.07339e-13 -1.07904e-13 4.18331e-13 4.18477e-13 -1.07904e-13 -1.07772e-13 4.18477e-13 4.18445e-13 4.18331e-13 4.18477e-13 -1.63008e-12 -1.63011e-12 4.18477e-13 4.18445e-13 -1.63011e-12 -1.6301e-12 -1.07772e-13 -1.07804e-13 4.18445e-13 4.18452e-13 -1.07804e-13 -1.07796e-13 4.18452e-13 4.18451e-13 4.18445e-13 4.18452e-13 -1.6301e-12 -1.63011e-12 4.18452e-13 4.18451e-13 -1.63011e-12 -1.63011e-12 -1.41209e-14 -1.41475e-14 2.93583e-14 2.93623e-14 -1.41475e-14 -1.4141e-14 2.93623e-14 2.93616e-14 2.93583e-14 2.93623e-14 -1.07796e-13 -1.07798e-13 2.93623e-14 2.93616e-14 -1.07798e-13 -1.07798e-13 -1.4141e-14 -1.41425e-14 2.93616e-14 2.93615e-14 -1.41425e-14 -1.41424e-14 2.93615e-14 2.93622e-14 2.93616e-14 2.93615e-14 -1.07798e-13 -1.07797e-13 2.93615e-14 2.93622e-14 -1.07797e-13 -1.07799e-13 -1.07796e-13 -1.07798e-13 4.18451e-13 4.18451e-13 -1.07798e-13 -1.07798e-13 4.18451e-13 4.18451e-13 4.18451e-13 4.18451e-13 -1.63011e-12 -1.63011e-12 4.18451e-13 4.18451e-13 -1.63011e-12 -1.63011e-12 -1.07798e-13 -1.07797e-13 4.18451e-13 4.1845e-13 -1.07797e-13 -1.07799e-13 4.1845e-13 4.18455e-13 4.18451e-13 4.1845e-13 -1.63011e-12 -1.6301e-12 4.1845e-13 4.18455e-13 -1.6301e-12 -1.63012e-12 -1.63008e-12 -1.63011e-12 6.3536e-12 6.35361e-12 -1.63011e-12 -1.6301e-12 6.35361e-12 6.35361e-12 6.3536e-12 6.35361e-12 -2.47562e-11 -2.47562e-11 6.35361e-12 6.35361e-12 -2.47562e-11 -2.47562e-11 -1.6301e-12 -1.63011e-12 6.35361e-12 6.35361e-12 -1.63011e-12 -1.63011e-12 6.35361e-12 6.35361e-12 6.35361e-12 6.35361e-12 -2.47562e-11 -2.47562e-11 6.35361e-12 6.35361e-12 -2.47562e-11 -2.47562e-11 -2.47562e-11 -2.47562e-11 9.64991e-11 9.64991e-11 -2.47562e-11 -2.47562e-11 9.64991e-11 9.64991e-11 9.64991e-11 9.64991e-11 -3.75976e-10 -3.75976e-10 9.64991e-11 9.64991e-11 -3.75976e-10 -3.75976e-10 -2.47562e-11 -2.47562e-11 9.64991e-11 9.64991e-11 -2.47562e-11 -2.47562e-11 9.64991e-11 9.64991e-11 9.64991e-11 9.64991e-11 -3.75976e-10 -3.75976e-10 9.64991e-11 9.64991e-11 -3.75976e-10 -3.75976e-10 -1.63011e-12 -1.63011e-12 6.35361e-12 6.35361e-12 -1.63011e-12 -1.63011e-12 6.35361e-12 6.35361e-12 6.35361e-12 6.35361e-12 -2.47562e-11 -2.47562e-11 6.35361e-12 6.35361e-12 -2.47562e-11 -2.47563e-11 -1.63011e-12 -1.6301e-12 6.35361e-12 6.35359e-12 -1.6301e-12 -1.63012e-12 6.35359e-12 6.35365e-12 6.35361e-12 6.35359e-12 -2.47563e-11 -2.47562e-11 6.35359e-12 6.35365e-12 -2.47562e-11 -2.47564e-11 -2.47562e-11 -2.47562e-11 9.64991e-11 9.64991e-11 -2.47562e-11 -2.47563e-11 9.64991e-11 9.64992e-11 9.64991e-11 9.64991e-11 -3.75976e-10 -3.75976e-10 9.64991e-11 9.64992e-11 -3.75976e-10 -3.75976e-10 -2.47563e-11 -2.47562e-11 9.64992e-11 9.6499e-11 -2.47562e-11 -2.47564e-11 9.6499e-11 9.64996e-11 9.64992e-11 9.6499e-11 -3.75976e-10 -3.75975e-10 9.6499e-11 9.64996e-11 -3.75975e-10 -3.75977e-10 -1.41424e-14 -1.41417e-14 2.93622e-14 2.93603e-14 -1.41417e-14 -1.41436e-14 2.93603e-14 2.93652e-14 2.93622e-14 2.93603e-14 -1.07799e-13 -1.07794e-13 2.93603e-14 2.93652e-14 -1.07794e-13 -1.07806e-13 -1.41436e-14 -1.41392e-14 2.93652e-14 2.93529e-14 -1.41392e-14 -1.41481e-14 2.93529e-14 2.93826e-14 2.93652e-14 2.93529e-14 -1.07806e-13 -1.07776e-13 2.93529e-14 2.93826e-14 -1.07776e-13 -1.07846e-13 -1.07799e-13 -1.07794e-13 4.18455e-13 4.18438e-13 -1.07794e-13 -1.07806e-13 4.18438e-13 4.18487e-13 4.18455e-13 4.18438e-13 -1.63012e-12 -1.63007e-12 4.18438e-13 4.18487e-13 -1.63007e-12 -1.6302e-12 -1.07806e-13 -1.07776e-13 4.18487e-13 4.18354e-13 -1.07776e-13 -1.07846e-13 4.18354e-13 4.18705e-13 4.18487e-13 4.18354e-13 -1.6302e-12 -1.62984e-12 4.18354e-13 4.18705e-13 -1.62984e-12 -1.63074e-12 -1.41481e-14 -1.41349e-14 2.93826e-14 2.9314e-14 -1.41349e-14 -1.41391e-14 2.9314e-14 2.94799e-14 2.93826e-14 2.9314e-14 -1.07846e-13 -1.07711e-13 2.9314e-14 2.94799e-14 -1.07711e-13 -1.07886e-13 -1.41391e-14 -1.41615e-14 2.94799e-14 2.8904e-14 -1.41615e-14 -1.42176e-14 2.8904e-14 3.13896e-14 2.94799e-14 2.8904e-14 -1.07886e-13 -1.0771e-13 2.8904e-14 3.13896e-14 -1.0771e-13 -1.08392e-13 -1.07846e-13 -1.07711e-13 4.18705e-13 4.17799e-13 -1.07711e-13 -1.07886e-13 4.17799e-13 4.2026e-13 4.18705e-13 4.17799e-13 -1.63074e-12 -1.62882e-12 4.17799e-13 4.2026e-13 -1.62882e-12 -1.63199e-12 -1.07886e-13 -1.0771e-13 4.2026e-13 4.11662e-13 -1.0771e-13 -1.08392e-13 4.11662e-13 4.46795e-13 4.2026e-13 4.11662e-13 -1.63199e-12 -1.62776e-12 4.11662e-13 4.46795e-13 -1.62776e-12 -1.63692e-12 -1.63012e-12 -1.63007e-12 6.35365e-12 6.35347e-12 -1.63007e-12 -1.6302e-12 6.35347e-12 6.35402e-12 6.35365e-12 6.35347e-12 -2.47564e-11 -2.47558e-11 6.35347e-12 6.35402e-12 -2.47558e-11 -2.47575e-11 -1.6302e-12 -1.62984e-12 6.35402e-12 6.3524e-12 -1.62984e-12 -1.63074e-12 6.3524e-12 6.35705e-12 6.35402e-12 6.3524e-12 -2.47575e-11 -2.47527e-11 6.3524e-12 6.35705e-12 -2.47527e-11 -2.4765e-11 -2.47564e-11 -2.47558e-11 9.64996e-11 9.64975e-11 -2.47558e-11 -2.47575e-11 9.64975e-11 9.65041e-11 9.64996e-11 9.64975e-11 -3.75977e-10 -3.75971e-10 9.64975e-11 9.65041e-11 -3.75971e-10 -3.7599e-10 -2.47575e-11 -2.47527e-11 9.65041e-11 9.64839e-11 -2.47527e-11 -2.4765e-11 9.64839e-11 9.65454e-11 9.65041e-11 9.64839e-11 -3.7599e-10 -3.75934e-10 9.64839e-11 9.65454e-11 -3.75934e-10 -3.76084e-10 -1.63074e-12 -1.62882e-12 6.35705e-12 6.34381e-12 -1.62882e-12 -1.63199e-12 6.34381e-12 6.38298e-12 6.35705e-12 6.34381e-12 -2.4765e-11 -2.47372e-11 6.34381e-12 6.38298e-12 -2.47372e-11 -2.47894e-11 -1.63199e-12 -1.62776e-12 6.38298e-12 6.24737e-12 -1.62776e-12 -1.63692e-12 6.24737e-12 6.77553e-12 6.38298e-12 6.24737e-12 -2.47894e-11 -2.47117e-11 6.24737e-12 6.77553e-12 -2.47117e-11 -2.48284e-11 -2.4765e-11 -2.47372e-11 9.65454e-11 9.63575e-11 -2.47372e-11 -2.47894e-11 9.63575e-11 9.69535e-11 9.65454e-11 9.63575e-11 -3.76084e-10 -3.75724e-10 9.63575e-11 9.69535e-11 -3.75724e-10 -3.76462e-10 -2.47894e-11 -2.47117e-11 9.69535e-11 9.48693e-11 -2.47117e-11 -2.48284e-11 9.48693e-11 1.02787e-10 9.69535e-11 9.48693e-11 -3.76462e-10 -3.75271e-10 9.48693e-11 1.02787e-10 -3.75271e-10 -3.76633e-10 -3.75976e-10 -3.75976e-10 1.46565e-09 1.46565e-09 -3.75976e-10 -3.75976e-10 1.46565e-09 1.46565e-09 1.46565e-09 1.46565e-09 -5.70995e-09 -5.70995e-09 1.46565e-09 1.46565e-09 -5.70995e-09 -5.70995e-09 -3.75976e-10 -3.75976e-10 1.46565e-09 1.46565e-09 -3.75976e-10 -3.75976e-10 1.46565e-09 1.46565e-09 1.46565e-09 1.46565e-09 -5.70995e-09 -5.70995e-09 1.46565e-09 1.46565e-09 -5.70995e-09 -5.70995e-09 -5.70995e-09 -5.70995e-09 2.2261e-08 2.2261e-08 -5.70995e-09 -5.70995e-09 2.2261e-08 2.2261e-08 2.2261e-08 2.2261e-08 -8.67166e-08 -8.67166e-08 2.2261e-08 2.2261e-08 -8.67166e-08 -8.67166e-08 -5.70995e-09 -5.70995e-09 2.2261e-08 2.2261e-08 -5.70995e-09 -5.70995e-09 2.2261e-08 2.2261e-08 2.2261e-08 2.2261e-08 -8.67166e-08 -8.67166e-08 2.2261e-08 2.2261e-08 -8.67166e-08 -8.67166e-08 -3.75976e-10 -3.75976e-10 1.46565e-09 1.46565e-09 -3.75976e-10 -3.75976e-10 1.46565e-09 1.46565e-09 1.46565e-09 1.46565e-09 -5.70995e-09 -5.70995e-09 1.46565e-09 1.46565e-09 -5.70995e-09 -5.70995e-09 -3.75976e-10 -3.75975e-10 1.46565e-09 1.46565e-09 -3.75975e-10 -3.75977e-10 1.46565e-09 1.46566e-09 1.46565e