# vtk DataFile Version 3.0
#This file was generated by the deal.II library on 2022/11/2 at 18:44:27
ASCII
DATASET UNSTRUCTURED_GRID

POINTS 4096 double
0 0.5 0
0.03125 0.5 0
0 0.53125 0
0.03125 0.53125 0
0.03125 0.5 0
0.0625 0.5 0
0.03125 0.53125 0
0.0625 0.53125 0
0 0.53125 0
0.03125 0.53125 0
0 0.5625 0
0.03125 0.5625 0
0.03125 0.53125 0
0.0625 0.53125 0
0.03125 0.5625 0
0.0625 0.5625 0
0.0625 0.5 0
0.09375 0.5 0
0.0625 0.53125 0
0.09375 0.53125 0
0.09375 0.5 0
0.125 0.5 0
0.09375 0.53125 0
0.125 0.53125 0
0.0625 0.53125 0
0.09375 0.53125 0
0.0625 0.5625 0
0.09375 0.5625 0
0.09375 0.53125 0
0.125 0.53125 0
0.09375 0.5625 0
0.125 0.5625 0
0 0.5625 0
0.03125 0.5625 0
0 0.59375 0
0.03125 0.59375 0
0.03125 0.5625 0
0.0625 0.5625 0
0.03125 0.59375 0
0.0625 0.59375 0
0 0.59375 0
0.03125 0.59375 0
0 0.625 0
0.03125 0.625 0
0.03125 0.59375 0
0.0625 0.59375 0
0.03125 0.625 0
0.0625 0.625 0
0.0625 0.5625 0
0.09375 0.5625 0
0.0625 0.59375 0
0.09375 0.59375 0
0.09375 0.5625 0
0.125 0.5625 0
0.09375 0.59375 0
0.125 0.59375 0
0.0625 0.59375 0
0.09375 0.59375 0
0.0625 0.625 0
0.09375 0.625 0
0.09375 0.59375 0
0.125 0.59375 0
0.09375 0.625 0
0.125 0.625 0
0.125 0.5 0
0.15625 0.5 0
0.125 0.53125 0
0.15625 0.53125 0
0.15625 0.5 0
0.1875 0.5 0
0.15625 0.53125 0
0.1875 0.53125 0
0.125 0.53125 0
0.15625 0.53125 0
0.125 0.5625 0
0.15625 0.5625 0
0.15625 0.53125 0
0.1875 0.53125 0
0.15625 0.5625 0
0.1875 0.5625 0
0.1875 0.5 0
0.21875 0.5 0
0.1875 0.53125 0
0.21875 0.53125 0
0.21875 0.5 0
0.25 0.5 0
0.21875 0.53125 0
0.25 0.53125 0
0.1875 0.53125 0
0.21875 0.53125 0
0.1875 0.5625 0
0.21875 0.5625 0
0.21875 0.53125 0
0.25 0.53125 0
0.21875 0.5625 0
0.25 0.5625 0
0.125 0.5625 0
0.15625 0.5625 0
0.125 0.59375 0
0.15625 0.59375 0
0.15625 0.5625 0
0.1875 0.5625 0
0.15625 0.59375 0
0.1875 0.59375 0
0.125 0.59375 0
0.15625 0.59375 0
0.125 0.625 0
0.15625 0.625 0
0.15625 0.59375 0
0.1875 0.59375 0
0.15625 0.625 0
0.1875 0.625 0
0.1875 0.5625 0
0.21875 0.5625 0
0.1875 0.59375 0
0.21875 0.59375 0
0.21875 0.5625 0
0.25 0.5625 0
0.21875 0.59375 0
0.25 0.59375 0
0.1875 0.59375 0
0.21875 0.59375 0
0.1875 0.625 0
0.21875 0.625 0
0.21875 0.59375 0
0.25 0.59375 0
0.21875 0.625 0
0.25 0.625 0
0 0.625 0
0.03125 0.625 0
0 0.65625 0
0.03125 0.65625 0
0.03125 0.625 0
0.0625 0.625 0
0.03125 0.65625 0
0.0625 0.65625 0
0 0.65625 0
0.03125 0.65625 0
0 0.6875 0
0.03125 0.6875 0
0.03125 0.65625 0
0.0625 0.65625 0
0.03125 0.6875 0
0.0625 0.6875 0
0.0625 0.625 0
0.09375 0.625 0
0.0625 0.65625 0
0.09375 0.65625 0
0.09375 0.625 0
0.125 0.625 0
0.09375 0.65625 0
0.125 0.65625 0
0.0625 0.65625 0
0.09375 0.65625 0
0.0625 0.6875 0
0.09375 0.6875 0
0.09375 0.65625 0
0.125 0.65625 0
0.09375 0.6875 0
0.125 0.6875 0
0 0.6875 0
0.03125 0.6875 0
0 0.71875 0
0.03125 0.71875 0
0.03125 0.6875 0
0.0625 0.6875 0
0.03125 0.71875 0
0.0625 0.71875 0
0 0.71875 0
0.03125 0.71875 0
0 0.75 0
0.03125 0.75 0
0.03125 0.71875 0
0.0625 0.71875 0
0.03125 0.75 0
0.0625 0.75 0
0.0625 0.6875 0
0.09375 0.6875 0
0.0625 0.71875 0
0.09375 0.71875 0
0.09375 0.6875 0
0.125 0.6875 0
0.09375 0.71875 0
0.125 0.71875 0
0.0625 0.71875 0
0.09375 0.71875 0
0.0625 0.75 0
0.09375 0.75 0
0.09375 0.71875 0
0.125 0.71875 0
0.09375 0.75 0
0.125 0.75 0
0.125 0.625 0
0.15625 0.625 0
0.125 0.65625 0
0.15625 0.65625 0
0.15625 0.625 0
0.1875 0.625 0
0.15625 0.65625 0
0.1875 0.65625 0
0.125 0.65625 0
0.15625 0.65625 0
0.125 0.6875 0
0.15625 0.6875 0
0.15625 0.65625 0
0.1875 0.65625 0
0.15625 0.6875 0
0.1875 0.6875 0
0.1875 0.625 0
0.21875 0.625 0
0.1875 0.65625 0
0.21875 0.65625 0
0.21875 0.625 0
0.25 0.625 0
0.21875 0.65625 0
0.25 0.65625 0
0.1875 0.65625 0
0.21875 0.65625 0
0.1875 0.6875 0
0.21875 0.6875 0
0.21875 0.65625 0
0.25 0.65625 0
0.21875 0.6875 0
0.25 0.6875 0
0.125 0.6875 0
0.15625 0.6875 0
0.125 0.71875 0
0.15625 0.71875 0
0.15625 0.6875 0
0.1875 0.6875 0
0.15625 0.71875 0
0.1875 0.71875 0
0.125 0.71875 0
0.15625 0.71875 0
0.125 0.75 0
0.15625 0.75 0
0.15625 0.71875 0
0.1875 0.71875 0
0.15625 0.75 0
0.1875 0.75 0
0.1875 0.6875 0
0.21875 0.6875 0
0.1875 0.71875 0
0.21875 0.71875 0
0.21875 0.6875 0
0.25 0.6875 0
0.21875 0.71875 0
0.25 0.71875 0
0.1875 0.71875 0
0.21875 0.71875 0
0.1875 0.75 0
0.21875 0.75 0
0.21875 0.71875 0
0.25 0.71875 0
0.21875 0.75 0
0.25 0.75 0
0.25 0.5 0
0.28125 0.5 0
0.25 0.53125 0
0.28125 0.53125 0
0.28125 0.5 0
0.3125 0.5 0
0.28125 0.53125 0
0.3125 0.53125 0
0.25 0.53125 0
0.28125 0.53125 0
0.25 0.5625 0
0.28125 0.5625 0
0.28125 0.53125 0
0.3125 0.53125 0
0.28125 0.5625 0
0.3125 0.5625 0
0.3125 0.5 0
0.34375 0.5 0
0.3125 0.53125 0
0.34375 0.53125 0
0.34375 0.5 0
0.375 0.5 0
0.34375 0.53125 0
0.375 0.53125 0
0.3125 0.53125 0
0.34375 0.53125 0
0.3125 0.5625 0
0.34375 0.5625 0
0.34375 0.53125 0
0.375 0.53125 0
0.34375 0.5625 0
0.375 0.5625 0
0.25 0.5625 0
0.28125 0.5625 0
0.25 0.59375 0
0.28125 0.59375 0
0.28125 0.5625 0
0.3125 0.5625 0
0.28125 0.59375 0
0.3125 0.59375 0
0.25 0.59375 0
0.28125 0.59375 0
0.25 0.625 0
0.28125 0.625 0
0.28125 0.59375 0
0.3125 0.59375 0
0.28125 0.625 0
0.3125 0.625 0
0.3125 0.5625 0
0.34375 0.5625 0
0.3125 0.59375 0
0.34375 0.59375 0
0.34375 0.5625 0
0.375 0.5625 0
0.34375 0.59375 0
0.375 0.59375 0
0.3125 0.59375 0
0.34375 0.59375 0
0.3125 0.625 0
0.34375 0.625 0
0.34375 0.59375 0
0.375 0.59375 0
0.34375 0.625 0
0.375 0.625 0
0.375 0.5 0
0.40625 0.5 0
0.375 0.53125 0
0.40625 0.53125 0
0.40625 0.5 0
0.4375 0.5 0
0.40625 0.53125 0
0.4375 0.53125 0
0.375 0.53125 0
0.40625 0.53125 0
0.375 0.5625 0
0.40625 0.5625 0
0.40625 0.53125 0
0.4375 0.53125 0
0.40625 0.5625 0
0.4375 0.5625 0
0.4375 0.5 0
0.46875 0.5 0
0.4375 0.53125 0
0.46875 0.53125 0
0.46875 0.5 0
0.5 0.5 0
0.46875 0.53125 0
0.5 0.53125 0
0.4375 0.53125 0
0.46875 0.53125 0
0.4375 0.5625 0
0.46875 0.5625 0
0.46875 0.53125 0
0.5 0.53125 0
0.46875 0.5625 0
0.5 0.5625 0
0.375 0.5625 0
0.40625 0.5625 0
0.375 0.59375 0
0.40625 0.59375 0
0.40625 0.5625 0
0.4375 0.5625 0
0.40625 0.59375 0
0.4375 0.59375 0
0.375 0.59375 0
0.40625 0.59375 0
0.375 0.625 0
0.40625 0.625 0
0.40625 0.59375 0
0.4375 0.59375 0
0.40625 0.625 0
0.4375 0.625 0
0.4375 0.5625 0
0.46875 0.5625 0
0.4375 0.59375 0
0.46875 0.59375 0
0.46875 0.5625 0
0.5 0.5625 0
0.46875 0.59375 0
0.5 0.59375 0
0.4375 0.59375 0
0.46875 0.59375 0
0.4375 0.625 0
0.46875 0.625 0
0.46875 0.59375 0
0.5 0.59375 0
0.46875 0.625 0
0.5 0.625 0
0.25 0.625 0
0.28125 0.625 0
0.25 0.65625 0
0.28125 0.65625 0
0.28125 0.625 0
0.3125 0.625 0
0.28125 0.65625 0
0.3125 0.65625 0
0.25 0.65625 0
0.28125 0.65625 0
0.25 0.6875 0
0.28125 0.6875 0
0.28125 0.65625 0
0.3125 0.65625 0
0.28125 0.6875 0
0.3125 0.6875 0
0.3125 0.625 0
0.34375 0.625 0
0.3125 0.65625 0
0.34375 0.65625 0
0.34375 0.625 0
0.375 0.625 0
0.34375 0.65625 0
0.375 0.65625 0
0.3125 0.65625 0
0.34375 0.65625 0
0.3125 0.6875 0
0.34375 0.6875 0
0.34375 0.65625 0
0.375 0.65625 0
0.34375 0.6875 0
0.375 0.6875 0
0.25 0.6875 0
0.28125 0.6875 0
0.25 0.71875 0
0.28125 0.71875 0
0.28125 0.6875 0
0.3125 0.6875 0
0.28125 0.71875 0
0.3125 0.71875 0
0.25 0.71875 0
0.28125 0.71875 0
0.25 0.75 0
0.28125 0.75 0
0.28125 0.71875 0
0.3125 0.71875 0
0.28125 0.75 0
0.3125 0.75 0
0.3125 0.6875 0
0.34375 0.6875 0
0.3125 0.71875 0
0.34375 0.71875 0
0.34375 0.6875 0
0.375 0.6875 0
0.34375 0.71875 0
0.375 0.71875 0
0.3125 0.71875 0
0.34375 0.71875 0
0.3125 0.75 0
0.34375 0.75 0
0.34375 0.71875 0
0.375 0.71875 0
0.34375 0.75 0
0.375 0.75 0
0.375 0.625 0
0.40625 0.625 0
0.375 0.65625 0
0.40625 0.65625 0
0.40625 0.625 0
0.4375 0.625 0
0.40625 0.65625 0
0.4375 0.65625 0
0.375 0.65625 0
0.40625 0.65625 0
0.375 0.6875 0
0.40625 0.6875 0
0.40625 0.65625 0
0.4375 0.65625 0
0.40625 0.6875 0
0.4375 0.6875 0
0.4375 0.625 0
0.46875 0.625 0
0.4375 0.65625 0
0.46875 0.65625 0
0.46875 0.625 0
0.5 0.625 0
0.46875 0.65625 0
0.5 0.65625 0
0.4375 0.65625 0
0.46875 0.65625 0
0.4375 0.6875 0
0.46875 0.6875 0
0.46875 0.65625 0
0.5 0.65625 0
0.46875 0.6875 0
0.5 0.6875 0
0.375 0.6875 0
0.40625 0.6875 0
0.375 0.71875 0
0.40625 0.71875 0
0.40625 0.6875 0
0.4375 0.6875 0
0.40625 0.71875 0
0.4375 0.71875 0
0.375 0.71875 0
0.40625 0.71875 0
0.375 0.75 0
0.40625 0.75 0
0.40625 0.71875 0
0.4375 0.71875 0
0.40625 0.75 0
0.4375 0.75 0
0.4375 0.6875 0
0.46875 0.6875 0
0.4375 0.71875 0
0.46875 0.71875 0
0.46875 0.6875 0
0.5 0.6875 0
0.46875 0.71875 0
0.5 0.71875 0
0.4375 0.71875 0
0.46875 0.71875 0
0.4375 0.75 0
0.46875 0.75 0
0.46875 0.71875 0
0.5 0.71875 0
0.46875 0.75 0
0.5 0.75 0
0 0.75 0
0.03125 0.75 0
0 0.78125 0
0.03125 0.78125 0
0.03125 0.75 0
0.0625 0.75 0
0.03125 0.78125 0
0.0625 0.78125 0
0 0.78125 0
0.03125 0.78125 0
0 0.8125 0
0.03125 0.8125 0
0.03125 0.78125 0
0.0625 0.78125 0
0.03125 0.8125 0
0.0625 0.8125 0
0.0625 0.75 0
0.09375 0.75 0
0.0625 0.78125 0
0.09375 0.78125 0
0.09375 0.75 0
0.125 0.75 0
0.09375 0.78125 0
0.125 0.78125 0
0.0625 0.78125 0
0.09375 0.78125 0
0.0625 0.8125 0
0.09375 0.8125 0
0.09375 0.78125 0
0.125 0.78125 0
0.09375 0.8125 0
0.125 0.8125 0
0 0.8125 0
0.03125 0.8125 0
0 0.84375 0
0.03125 0.84375 0
0.03125 0.8125 0
0.0625 0.8125 0
0.03125 0.84375 0
0.0625 0.84375 0
0 0.84375 0
0.03125 0.84375 0
0 0.875 0
0.03125 0.875 0
0.03125 0.84375 0
0.0625 0.84375 0
0.03125 0.875 0
0.0625 0.875 0
0.0625 0.8125 0
0.09375 0.8125 0
0.0625 0.84375 0
0.09375 0.84375 0
0.09375 0.8125 0
0.125 0.8125 0
0.09375 0.84375 0
0.125 0.84375 0
0.0625 0.84375 0
0.09375 0.84375 0
0.0625 0.875 0
0.09375 0.875 0
0.09375 0.84375 0
0.125 0.84375 0
0.09375 0.875 0
0.125 0.875 0
0.125 0.75 0
0.15625 0.75 0
0.125 0.78125 0
0.15625 0.78125 0
0.15625 0.75 0
0.1875 0.75 0
0.15625 0.78125 0
0.1875 0.78125 0
0.125 0.78125 0
0.15625 0.78125 0
0.125 0.8125 0
0.15625 0.8125 0
0.15625 0.78125 0
0.1875 0.78125 0
0.15625 0.8125 0
0.1875 0.8125 0
0.1875 0.75 0
0.21875 0.75 0
0.1875 0.78125 0
0.21875 0.78125 0
0.21875 0.75 0
0.25 0.75 0
0.21875 0.78125 0
0.25 0.78125 0
0.1875 0.78125 0
0.21875 0.78125 0
0.1875 0.8125 0
0.21875 0.8125 0
0.21875 0.78125 0
0.25 0.78125 0
0.21875 0.8125 0
0.25 0.8125 0
0.125 0.8125 0
0.15625 0.8125 0
0.125 0.84375 0
0.15625 0.84375 0
0.15625 0.8125 0
[...]
POINT_DATA 4096
SCALARS x_dis double 1
LOOKUP_TABLE default
1.12151e-13 2.38872e-13 -2.60286e-12 -1.58964e-12 2.38872e-13 -1.19833e-13 -1.58964e-12 -9.59009e-14 -2.60286e-12 -1.58964e-12 3.86543e-12 5.55837e-12 -1.58964e-12 -9.59009e-14 5.55837e-12 2.41135e-12 -1.19833e-13 -1.7848e-13 -9.59009e-14 5.19706e-14 -1.7848e-13 -1.47602e-13 5.19706e-14 -1.18989e-13 -9.59009e-14 5.19706e-14 2.41135e-12 2.2064e-12 5.19706e-14 -1.18989e-13 2.2064e-12 3.1441e-12 3.86543e-12 5.55837e-12 -3.81124e-11 -2.61276e-11 5.55837e-12 2.41135e-12 -2.61276e-11 -1.4351e-11 -3.81124e-11 -2.61276e-11 5.36134e-11 7.01665e-11 -2.61276e-11 -1.4351e-11 7.01665e-11 6.47599e-11 2.41135e-12 2.2064e-12 -1.4351e-11 -1.40862e-11 2.2064e-12 3.1441e-12 -1.40862e-11 -1.77222e-11 -1.4351e-11 -1.40862e-11 6.47599e-11 7.42746e-11 -1.40862e-11 -1.77222e-11 7.42746e-11 8.74378e-11 -1.47602e-13 -1.15524e-13 -1.18989e-13 -1.57598e-13 -1.15524e-13 -1.28923e-13 -1.57598e-13 -1.30542e-13 -1.18989e-13 -1.57598e-13 3.1441e-12 3.07811e-12 -1.57598e-13 -1.30542e-13 3.07811e-12 2.94115e-12 -1.28923e-13 -1.29935e-13 -1.30542e-13 -1.36133e-13 -1.29935e-13 -1.27417e-13 -1.36133e-13 -1.37439e-13 -1.30542e-13 -1.36133e-13 2.94115e-12 2.99225e-12 -1.36133e-13 -1.37439e-13 2.99225e-12 2.98909e-12 3.1441e-12 3.07811e-12 -1.77222e-11 -1.66626e-11 3.07811e-12 2.94115e-12 -1.66626e-11 -1.65632e-11 -1.77222e-11 -1.66626e-11 8.74378e-11 8.28481e-11 -1.66626e-11 -1.65632e-11 8.28481e-11 8.2183e-11 2.94115e-12 2.99225e-12 -1.65632e-11 -1.67385e-11 2.99225e-12 2.98909e-12 -1.67385e-11 -1.66801e-11 -1.65632e-11 -1.67385e-11 8.2183e-11 8.28879e-11 -1.67385e-11 -1.66801e-11 8.28879e-11 8.26889e-11 5.36134e-11 7.01665e-11 -4.29249e-10 -2.93259e-10 7.01665e-11 6.47599e-11 -2.93259e-10 -2.6829e-10 -4.29249e-10 -2.93259e-10 2.45313e-10 5.1034e-10 -2.93259e-10 -2.6829e-10 5.1034e-10 9.14618e-10 6.47599e-11 7.42746e-11 -2.6829e-10 -2.93442e-10 7.42746e-11 8.74378e-11 -2.93442e-10 -3.34453e-10 -2.6829e-10 -2.93442e-10 9.14618e-10 1.08881e-09 -2.93442e-10 -3.34453e-10 1.08881e-09 1.17637e-09 2.45313e-10 5.1034e-10 -3.34757e-09 -2.04717e-09 5.1034e-10 9.14618e-10 -2.04717e-09 -3.03873e-09 -3.34757e-09 -2.04717e-09 -8.46963e-09 -1.14095e-09 -2.04717e-09 -3.03873e-09 -1.14095e-09 7.15013e-09 9.14618e-10 1.08881e-09 -3.03873e-09 -3.46863e-09 1.08881e-09 1.17637e-09 -3.46863e-09 -3.55333e-09 -3.03873e-09 -3.46863e-09 7.15013e-09 8.33461e-09 -3.46863e-09 -3.55333e-09 8.33461e-09 8.00056e-09 8.74378e-11 8.28481e-11 -3.34453e-10 -3.16694e-10 8.28481e-11 8.2183e-11 -3.16694e-10 -3.17519e-10 -3.34453e-10 -3.16694e-10 1.17637e-09 1.12612e-09 -3.16694e-10 -3.17519e-10 1.12612e-09 1.12551e-09 8.2183e-11 8.28879e-11 -3.17519e-10 -3.19016e-10 8.28879e-11 8.26889e-11 -3.19016e-10 -3.18408e-10 -3.17519e-10 -3.19016e-10 1.12551e-09 1.12883e-09 -3.19016e-10 -3.18408e-10 1.12883e-09 1.12785e-09 1.17637e-09 1.12612e-09 -3.55333e-09 -3.46727e-09 1.12612e-09 1.12551e-09 -3.46727e-09 -3.47094e-09 -3.55333e-09 -3.46727e-09 8.00056e-09 7.71264e-09 -3.46727e-09 -3.47094e-09 7.71264e-09 7.73357e-09 1.12551e-09 1.12883e-09 -3.47094e-09 -3.4771e-09 1.12883e-09 1.12785e-09 -3.4771e-09 -3.47523e-09 -3.47094e-09 -3.4771e-09 7.73357e-09 7.73925e-09 -3.4771e-09 -3.47523e-09 7.73925e-09 7.73399e-09 -1.27417e-13 -1.28444e-13 -1.37439e-13 -1.36314e-13 -1.28444e-13 -1.28246e-13 -1.36314e-13 -1.36734e-13 -1.37439e-13 -1.36314e-13 2.98909e-12 2.98534e-12 -1.36314e-13 -1.36734e-13 2.98534e-12 2.98695e-12 -1.28246e-13 -1.28254e-13 -1.36734e-13 -1.36588e-13 -1.28254e-13 -1.2817e-13 -1.36588e-13 -1.36711e-13 -1.36734e-13 -1.36588e-13 2.98695e-12 2.98658e-12 -1.36588e-13 -1.36711e-13 2.98658e-12 2.98681e-12 2.98909e-12 2.98534e-12 -1.66801e-11 -1.669e-11 2.98534e-12 2.98695e-12 -1.669e-11 -1.66894e-11 -1.66801e-11 -1.669e-11 8.26889e-11 8.27208e-11 -1.669e-11 -1.66894e-11 8.27208e-11 8.27129e-11 2.98695e-12 2.98658e-12 -1.66894e-11 -1.66894e-11 2.98658e-12 2.98681e-12 -1.66894e-11 -1.66894e-11 -1.66894e-11 -1.66894e-11 8.27129e-11 8.27179e-11 -1.66894e-11 -1.66894e-11 8.27179e-11 8.27157e-11 -1.2817e-13 -1.28485e-13 -1.36711e-13 -1.3637e-13 -1.28485e-13 -1.28148e-13 -1.3637e-13 -1.36888e-13 -1.36711e-13 -1.3637e-13 2.98681e-12 2.98649e-12 -1.3637e-13 -1.36888e-13 2.98649e-12 2.9859e-12 -1.28148e-13 -1.36557e-13 -1.36888e-13 -1.47916e-13 -1.36557e-13 -1.67083e-13 -1.47916e-13 -1.34376e-13 -1.36888e-13 -1.47916e-13 2.9859e-12 2.98556e-12 -1.47916e-13 -1.34376e-13 2.98556e-12 2.97799e-12 2.98681e-12 2.98649e-12 -1.66894e-11 -1.66893e-11 2.98649e-12 2.9859e-12 -1.66893e-11 -1.66893e-11 -1.66894e-11 -1.66893e-11 8.27157e-11 8.27161e-11 -1.66893e-11 -1.66893e-11 8.27161e-11 8.27162e-11 2.9859e-12 2.98556e-12 -1.66893e-11 -1.66897e-11 2.98556e-12 2.97799e-12 -1.66897e-11 -1.66888e-11 -1.66893e-11 -1.66897e-11 8.27162e-11 8.27161e-11 -1.66897e-11 -1.66888e-11 8.27161e-11 8.27158e-11 8.26889e-11 8.27208e-11 -3.18408e-10 -3.18555e-10 8.27208e-11 8.27129e-11 -3.18555e-10 -3.18512e-10 -3.18408e-10 -3.18555e-10 1.12785e-09 1.12802e-09 -3.18555e-10 -3.18512e-10 1.12802e-09 1.12792e-09 8.27129e-11 8.27179e-11 -3.18512e-10 -3.18534e-10 8.27179e-11 8.27157e-11 -3.18534e-10 -3.18523e-10 -3.18512e-10 -3.18534e-10 1.12792e-09 1.128e-09 -3.18534e-10 -3.18523e-10 1.128e-09 1.12796e-09 1.12785e-09 1.12802e-09 -3.47523e-09 -3.47526e-09 1.12802e-09 1.12792e-09 -3.47526e-09 -3.47531e-09 -3.47523e-09 -3.47526e-09 7.73399e-09 7.73471e-09 -3.47526e-09 -3.47531e-09 7.73471e-09 7.73472e-09 1.12792e-09 1.128e-09 -3.47531e-09 -3.47537e-09 1.128e-09 1.12796e-09 -3.47537e-09 -3.47531e-09 -3.47531e-09 -3.47537e-09 7.73472e-09 7.7348e-09 -3.47537e-09 -3.47531e-09 7.7348e-09 7.7347e-09 8.27157e-11 8.27161e-11 -3.18523e-10 -3.18527e-10 8.27161e-11 8.27162e-11 -3.18527e-10 -3.18526e-10 -3.18523e-10 -3.18527e-10 1.12796e-09 1.12797e-09 -3.18527e-10 -3.18526e-10 1.12797e-09 1.12797e-09 8.27162e-11 8.27161e-11 -3.18526e-10 -3.18526e-10 8.27161e-11 8.27158e-11 -3.18526e-10 -3.18526e-10 -3.18526e-10 -3.18526e-10 1.12797e-09 1.12797e-09 -3.18526e-10 -3.18526e-10 1.12797e-09 1.12797e-09 1.12796e-09 1.12797e-09 -3.47531e-09 -3.47534e-09 1.12797e-09 1.12797e-09 -3.47534e-09 -3.47533e-09 -3.47531e-09 -3.47534e-09 7.7347e-09 7.73476e-09 -3.47534e-09 -3.47533e-09 7.73476e-09 7.73473e-09 1.12797e-09 1.12797e-09 -3.47533e-09 -3.47533e-09 1.12797e-09 1.12797e-09 -3.47533e-09 -3.47533e-09 -3.47533e-09 -3.47533e-09 7.73473e-09 7.73474e-09 -3.47533e-09 -3.47533e-09 7.73474e-09 7.73474e-09 -8.46963e-09 -1.14095e-09 -3.67675e-09 4.69644e-09 -1.14095e-09 7.15013e-09 4.69644e-09 -1.14081e-08 -3.67675e-09 4.69644e-09 -2.4397e-07 -1.45035e-07 4.69644e-09 -1.14081e-08 -1.45035e-07 -5.24308e-08 7.15013e-09 8.33461e-09 -1.14081e-08 -1.33655e-08 8.33461e-09 8.00056e-09 -1.33655e-08 -1.02279e-08 -1.14081e-08 -1.33655e-08 -5.24308e-08 -3.45105e-08 -1.33655e-08 -1.02279e-08 -3.45105e-08 -5.0702e-08 -2.4397e-07 -1.45035e-07 2.57892e-07 3.64876e-07 -1.45035e-07 -5.24308e-08 3.64876e-07 3.32206e-07 2.57892e-07 3.64876e-07 -2.80145e-06 -1.83351e-06 3.64876e-07 3.32206e-07 -1.83351e-06 -1.6624e-06 -5.24308e-08 -3.45105e-08 3.32206e-07 2.99455e-07 -3.45105e-08 -5.0702e-08 2.99455e-07 3.11148e-07 3.32206e-07 2.99455e-07 -1.6624e-06 -1.36379e-06 2.99455e-07 3.11148e-07 -1.36379e-06 -1.34423e-06 8.00056e-09 7.71264e-09 -1.02279e-08 -1.04525e-08 7.71264e-09 7.73357e-09 -1.04525e-08 -1.04342e-08 -1.02279e-08 -1.04525e-08 -5.0702e-08 -5.11729e-08 -1.04525e-08 -1.04342e-08 -5.11729e-08 -5.09568e-08 7.73357e-09 7.73925e-09 -1.04342e-08 -1.04758e-08 7.73925e-09 7.73399e-09 -1.04758e-08 -1.0467e-08 -1.04342e-08 -1.04758e-08 -5.09568e-08 -5.07482e-08 -1.04758e-08 -1.0467e-08 -5.07482e-08 -5.08887e-08 -5.0702e-08 -5.11729e-08 3.11148e-07 3.05898e-07 -5.11729e-08 -5.09568e-08 3.05898e-07 3.08117e-07 3.11148e-07 3.05898e-07 -1.34423e-06 -1.36363e-06 3.05898e-07 3.08117e-07 -1.36363e-06 -1.37496e-06 -5.09568e-08 -5.07482e-08 3.08117e-07 3.0734e-07 -5.07482e-08 -5.08887e-08 3.0734e-07 3.07461e-07 3.08117e-07 3.0734e-07 -1.37496e-06 -1.36873e-06 3.0734e-07 3.07461e-07 -1.36873e-06 -1.37005e-06 -2.80145e-06 -1.83351e-06 -4.1922e-06 -2.31303e-06 -1.83351e-06 -1.6624e-06 -2.31303e-06 2.31743e-06 -4.1922e-06 -2.31303e-06 -1.34243e-05 5.82166e-06 -2.31303e-06 2.31743e-06 5.82166e-06 6.17847e-06 -1.6624e-06 -1.36379e-06 2.31743e-06 3.49372e-06 -1.36379e-06 -1.34423e-06 3.49372e-06 3.5604e-06 2.31743e-06 3.49372e-06 6.17847e-06 7.47687e-06 3.49372e-06 3.5604e-06 7.47687e-06 7.28137e-06 -1.34243e-05 5.82166e-06 -9.78449e-05 -3.826e-05 5.82166e-06 6.17847e-06 -3.826e-05 -2.89686e-05 -9.78449e-05 -3.826e-05 -0.00021 -0.00021 -3.826e-05 -2.89686e-05 -0.00021 -0.00021 6.17847e-06 7.47687e-06 -2.89686e-05 -2.90706e-05 7.47687e-06 7.28137e-06 -2.90706e-05 -2.94927e-05 -2.89686e-05 -2.90706e-05 -0.00021 -0.00021 -2.90706e-05 -2.94927e-05 -0.00021 -0.00021 -1.34423e-06 -1.36363e-06 3.5604e-06 3.41034e-06 -1.36363e-06 -1.37496e-06 3.41034e-06 3.40372e-06 3.5604e-06 3.41034e-06 7.28137e-06 7.09585e-06 3.41034e-06 3.40372e-06 7.09585e-06 7.16493e-06 -1.37496e-06 -1.36873e-06 3.40372e-06 3.42303e-06 -1.36873e-06 -1.37005e-06 3.42303e-06 3.41605e-06 3.40372e-06 3.42303e-06 7.16493e-06 7.15818e-06 3.42303e-06 3.41605e-06 7.15818e-06 7.15408e-06 7.28137e-06 7.09585e-06 -2.94927e-05 -2.95097e-05 7.09585e-06 7.16493e-06 -2.95097e-05 -2.95054e-05 -2.94927e-05 -2.95097e-05 -0.00021 -0.00021 -2.95097e-05 -2.95054e-05 -0.00021 -0.00021 7.16493e-06 7.15818e-06 -2.95054e-05 -2.95006e-05 7.15818e-06 7.15408e-06 -2.95006e-05 -2.95033e-05 -2.95054e-05 -2.95006e-05 -0.00021 -0.00021 -2.95006e-05 -2.95033e-05 -0.00021 -0.00021 7.73399e-09 7.73471e-09 -1.0467e-08 -1.04611e-08 7.73471e-09 7.73472e-09 -1.04611e-08 -1.04664e-08 -1.0467e-08 -1.04611e-08 -5.08887e-08 -5.0863e-08 -1.04611e-08 -1.04664e-08 -5.0863e-08 -5.08542e-08 7.73472e-09 7.7348e-09 -1.04664e-08 -1.04643e-08 7.7348e-09 7.7347e-09 -1.04643e-08 -1.04647e-08 -1.04664e-08 -1.04643e-08 -5.08542e-08 -5.08626e-08 -1.04643e-08 -1.04647e-08 -5.08626e-08 -5.08591e-08 -5.08887e-08 -5.0863e-08 3.07461e-07 3.07517e-07 -5.0863e-08 -5.08542e-08 3.07517e-07 3.07465e-07 3.07461e-07 3.07517e-07 -1.37005e-06 -1.37014e-06 3.07517e-07 3.07465e-07 -1.37014e-06 -1.36997e-06 -5.08542e-08 -5.08626e-08 3.07465e-07 3.07488e-07 -5.08626e-08 -5.08591e-08 3.07488e-07 3.07481e-07 3.07465e-07 3.07488e-07 -1.36997e-06 -1.37004e-06 3.07488e-07 3.07481e-07 -1.37004e-06 -1.37002e-06 7.7347e-09 7.73476e-09 -1.04647e-08 -1.04648e-08 7.73476e-09 7.73473e-09 -1.04648e-08 -1.04647e-08 -1.04647e-08 -1.04648e-08 -5.08591e-08 -5.086e-08 -1.04648e-08 -1.04647e-08 -5.086e-08 -5.08599e-08 7.73473e-09 7.73474e-09 -1.04647e-08 -1.04647e-08 7.73474e-09 7.73474e-09 -1.04647e-08 -1.04647e-08 -1.04647e-08 -1.04647e-08 -5.08599e-08 -5.08598e-08 -1.04647e-08 -1.04647e-08 -5.08598e-08 -5.08599e-08 -5.08591e-08 -5.086e-08 3.07481e-07 3.07482e-07 -5.086e-08 -5.08599e-08 3.07482e-07 3.07482e-07 3.07481e-07 3.07482e-07 -1.37002e-06 -1.37003e-06 3.07482e-07 3.07482e-07 -1.37003e-06 -1.37003e-06 -5.08599e-08 -5.08598e-08 3.07482e-07 3.07482e-07 -5.08598e-08 -5.08599e-08 3.07482e-07 3.07482e-07 3.07482e-07 3.07482e-07 -1.37003e-06 -1.37003e-06 3.07482e-07 3.07482e-07 -1.37003e-06 -1.37003e-06 -1.37005e-06 -1.37014e-06 3.41605e-06 3.41692e-06 -1.37014e-06 -1.36997e-06 3.41692e-06 3.41728e-06 3.41605e-06 3.41692e-06 7.15408e-06 7.15658e-06 3.41692e-06 3.41728e-06 7.15658e-06 7.1558e-06 -1.36997e-06 -1.37004e-06 3.41728e-06 3.417e-06 -1.37004e-06 -1.37002e-06 3.417e-06 3.41711e-06 3.41728e-06 3.417e-06 7.1558e-06 7.15595e-06 3.417e-06 3.41711e-06 7.15595e-06 7.15594e-06 7.15408e-06 7.15658e-06 -2.95033e-05 -2.95026e-05 7.15658e-06 7.1558e-06 -2.95026e-05 -2.95027e-05 -2.95033e-05 -2.95026e-05 -0.00021 -0.00021 -2.95026e-05 -2.95027e-05 -0.00021 -0.00021 7.1558e-06 7.15595e-06 -2.95027e-05 -2.95027e-05 7.15595e-06 7.15594e-06 -2.95027e-05 -2.95027e-05 -2.95027e-05 -2.95027e-05 -0.00021 -0.00021 -2.95027e-05 -2.95027e-05 -0.00021 -0.00021 -1.37002e-06 -1.37003e-06 3.41711e-06 3.41708e-06 -1.37003e-06 -1.37003e-06 3.41708e-06 3.41708e-06 3.41711e-06 3.41708e-06 7.15594e-06 7.15593e-06 3.41708e-06 3.41708e-06 7.15593e-06 7.15594e-06 -1.37003e-06 -1.37003e-06 3.41708e-06 3.41708e-06 -1.37003e-06 -1.37003e-06 3.41708e-06 3.41708e-06 3.41708e-06 3.41708e-06 7.15594e-06 7.15594e-06 3.41708e-06 3.41708e-06 7.15594e-06 7.15594e-06 7.15594e-06 7.15593e-06 -2.95027e-05 -2.95027e-05 7.15593e-06 7.15594e-06 -2.95027e-05 -2.95027e-05 -2.95027e-05 -2.95027e-05 -0.00021 -0.00021 -2.95027e-05 -2.95027e-05 -0.00021 -0.00021 7.15594e-06 7.15594e-06 -2.95027e-05 -2.95027e-05 7.15594e-06 7.15594e-06 -2.95027e-05 -2.95027e-05 -2.95027e-05 -2.95027e-05 -0.00021 -0.00021 -2.95027e-05 -2.95027e-05 -0.00021 -0.00021 -1.67083e-13 -2.68609e-13 -1.34376e-13 -5.02603e-14 -2.68609e-13 -1.53546e-13 -5.02603e-14 -1.05258e-13 -1.34376e-13 -5.02603e-14 2.97799e-12 2.94912e-12 -5.02603e-14 -1.05258e-13 2.94912e-12 2.96399e-12 -1.53546e-13 -1.99444e-13 -1.05258e-13 -9.05092e-14 -1.99444e-13 -1.91281e-13 -9.05092e-14 -9.35164e-14 -1.05258e-13 -9.05092e-14 2.96399e-12 2.96348e-12 -9.05092e-14 -9.35164e-14 2.96348e-12 2.96298e-12 2.97799e-12 2.94912e-12 -1.66888e-11 -1.66784e-11 2.94912e-12 2.96399e-12 -1.66784e-11 -1.66796e-11 -1.66888e-11 -1.66784e-11 8.27158e-11 8.27119e-11 -1.66784e-11 -1.66796e-11 8.27119e-11 8.27123e-11 2.96399e-12 2.96348e-12 -1.66796e-11 -1.66797e-11 2.96348e-12 2.96298e-12 -1.66797e-11 -1.66792e-11 -1.66796e-11 -1.66797e-11 8.27123e-11 8.27129e-11 -1.66797e-11 -1.66792e-11 8.27129e-11 8.27125e-11 -1.91281e-13 -1.92463e-13 -9.35164e-14 -9.33275e-14 -1.92463e-13 -1.92503e-13 -9.33275e-14 -9.32892e-14 -9.35164e-14 -9.33275e-14 2.96298e-12 2.96321e-12 -9.33275e-14 -9.32892e-14 2.96321e-12 2.96302e-12 -1.92503e-13 -1.92504e-13 -9.32892e-14 -9.32956e-14 -1.92504e-13 -1.92423e-13 -9.32956e-14 -9.25272e-14 -9.32892e-14 -9.32956e-14 2.96302e-12 2.96371e-12 -9.32956e-14 -9.25272e-14 2.96371e-12 2.95954e-12 2.96298e-12 2.96321e-12 -1.66792e-11 -1.66796e-11 2.96321e-12 2.96302e-12 -1.66796e-11 -1.66792e-11 -1.66792e-11 -1.66796e-11 8.27125e-11 8.27127e-11 -1.66796e-11 -1.66792e-11 8.27127e-11 8.27117e-11 2.96302e-12 2.96371e-12 -1.66792e-11 -1.66818e-11 2.96371e-12 2.95954e-12 -1.66818e-11 -1.66664e-11 -1.66792e-11 -1.66818e-11 8.27117e-11 8.27192e-11 -1.66818e-11 -1.66664e-11 8.27192e-11 8.26859e-11 8.27158e-11 8.27119e-11 -3.18526e-10 -3.18525e-10 8.27119e-11 8.27123e-11 -3.18525e-10 -3.18525e-10 -3.18526e-10 -3.18525e-10 1.12797e-09 1.12797e-09 -3.18525e-10 -3.18525e-10 1.12797e-09 1.12797e-09 8.27123e-11 8.27129e-11 -3.18525e-10 -3.18525e-10 8.27129e-11 8.27125e-11 -3.18525e-10 -3.18526e-10 -3.18525e-10 -3.18525e-10 1.12797e-09 1.12797e-09 -3.18525e-10 -3.18526e-10 1.12797e-09 1.12798e-09 1.12797e-09 1.12797e-09 -3.47533e-09 -3.47533e-09 1.12797e-09 1.12797e-09 -3.47533e-09 -3.47533e-09 -3.47533e-09 -3.47533e-09 7.73474e-09 7.73474e-09 -3.47533e-09 -3.47533e-09 7.73474e-09 7.73475e-09 1.12797e-09 1.12797e-09 -3.47533e-09 -3.47532e-09 1.12797e-09 1.12798e-09 -3.47532e-09 -3.47536e-09 -3.47533e-09 -3.47532e-09 7.73475e-09 7.73471e-09 -3.47532e-09 -3.47536e-09 7.73471e-09 7.73483e-09 8.27125e-11 8.27127e-11 -3.18526e-10 -3.18523e-10 8.27127e-11 8.27117e-11 -3.18523e-10 -3.18527e-10 -3.18526e-10 -3.18523e-10 1.12798e-09 1.12796e-09 -3.18523e-10 -3.18527e-10 1.12796e-09 1.12798e-09 8.27117e-11 8.27192e-11 -3.18527e-10 -3.1854e-10 8.27192e-11 8.26859e-11 -3.1854e-10 -3.18464e-10 -3.18527e-10 -3.1854e-10 1.12798e-09 1.128e-09 -3.1854e-10 -3.18464e-10 1.128e-09 1.12789e-09 1.12798e-09 1.12796e-09 -3.47536e-09 -3.47527e-09 1.12796e-09 1.12798e-09 -3.47527e-09 -3.47538e-09 -3.47536e-09 -3.47527e-09 7.73483e-09 7.73461e-09 -3.47527e-09 -3.47538e-09 7.73461e-09 7.73473e-09 1.12798e-09 1.128e-09 -3.47538e-09 -3.47546e-09 1.128e-09 1.12789e-09 -3.47546e-09 -3.47485e-09 -3.47538e-09 -3.47546e-09 7.73473e-09 7.73542e-09 -3.47546e-09 -3.47485e-09 7.73542e-09 7.73319e-09 -1.92423e-13 -1.91479e-13 -9.25272e-14 -9.7697e-14 -1.91479e-13 -1.96177e-13 -9.7697e-14 -8.34559e-14 -9.25272e-14 -9.7697e-14 2.95954e-12 2.97518e-12 -9.7697e-14 -8.34559e-14 2.97518e-12 2.94962e-12 -1.96177e-13 -1.91932e-13 -8.34559e-14 -8.06224e-14 -1.91932e-13 -1.6122e-13 -8.06224e-14 -2.20528e-13 -8.34559e-14 -8.06224e-14 2.94962e-12 2.87175e-12 -8.06224e-14 -2.20528e-13 2.87175e-12 3.37611e-12 2.95954e-12 2.97518e-12 -1.66664e-11 -1.67189e-11 2.97518e-12 2.94962e-12 -1.67189e-11 -1.66661e-11 -1.66664e-11 -1.67189e-11 8.26859e-11 8.27661e-11 -1.67189e-11 -1.66661e-11 8.27661e-11 8.27983e-11 2.94962e-12 2.87175e-12 -1.66661e-11 -1.62704e-11 2.87175e-12 3.37611e-12 -1.62704e-11 -1.83559e-11 -1.66661e-11 -1.62704e-11 8.27983e-11 8.15658e-11 -1.62704e-11 -1.83559e-11 8.15658e-11 8.65689e-11 -1.6122e-13 -3.03175e-13 -2.20528e-13 1.24186e-13 -3.03175e-13 -4.61881e-13 1.24186e-13 5.55745e-13 -2.20528e-13 1.24186e-13 3.37611e-12 2.20416e-12 1.24186e-13 5.55745e-13 2.20416e-12 3.68859e-13 -4.61881e-13 5.93965e-13 5.55745e-13 -1.12301e-12 5.93965e-13 1.42531e-12 -1.12301e-12 -1.28289e-12 5.55745e-13 -1.12301e-12 3.68859e-13 6.53365e-12 -1.12301e-12 -1.28289e-12 6.53365e-12 1.27078e-11 3.37611e-12 2.20416e-12 -1.83559e-11 -1.52551e-11 2.20416e-12 3.68859e-13 -1.52551e-11 -8.79646e-12 -1.83559e-11 -1.52551e-11 8.65689e-11 7.64402e-11 -1.52551e-11 -8.79646e-12 7.64402e-11 6.19564e-11 3.68859e-13 6.53365e-12 -8.79646e-12 -2.04907e-11 6.53365e-12 1.27078e-11 -2.04907e-11 -2.14262e-11 -8.79646e-12 -2.04907e-11 6.19564e-11 9.93834e-11 -2.04907e-11 -2.14262e-11 9.93834e-11 1.49822e-10 8.26859e-11 8.27661e-11 -3.18464e-10 -3.18531e-10 8.27661e-11 8.27983e-11 -3.18531e-10 -3.19419e-10 -3.18464e-10 -3.18531e-10 1.12789e-09 1.12767e-09 -3.18531e-10 -3.19419e-10 1.12767e-09 1.13014e-09 8.27983e-11 8.15658e-11 -3.19419e-10 -3.1429e-10 8.15658e-11 8.65689e-11 -3.1429e-10 -3.27648e-10 -3.19419e-10 -3.1429e-10 1.13014e-09 1.12264e-09 -3.1429e-10 -3.27648e-10 1.12264e-09 1.12673e-09 1.12789e-09 1.12767e-09 -3.47485e-09 -3.47463e-09 1.12767e-09 1.13014e-09 -3.47463e-09 -3.48401e-09 -3.47485e-09 -3.47463e-09 7.73319e-09 7.73384e-09 -3.47463e-09 -3.48401e-09 7.73384e-09 7.74441e-09 1.13014e-09 1.12264e-09 -3.48401e-09 -3.46026e-09 1.12264e-09 1.12673e-09 -3.46026e-09 -3.41548e-09 -3.48401e-09 -3.46026e-09 7.74441e-09 7.75034e-09 -3.46026e-09 -3.41548e-09 7.75034e-09 7.44316e-09 8.65689e-11 7.64402e-11 -3.27648e-10 -3.26378e-10 7.64402e-11 6.19564e-11 -3.26378e-10 -2.99207e-10 -3.27648e-10 -3.26378e-10 1.12673e-09 1.1316e-09 -3.26378e-10 -2.99207e-10 1.1316e-09 1.16332e-09 6.19564e-11 9.93834e-11 -2.99207e-10 -2.20376e-10 9.93834e-11 1.49822e-10 -2.20376e-10 -1.44309e-10 -2.99207e-10 -2.20376e-10 1.16332e-09 8.19699e-10 -2.20376e-10 -1.44309e-10 8.19699e-10 1.12577e-09 1.12673e-09 1.1316e-09 -3.41548e-09 -3.83714e-09 1.1316e-09 1.16332e-09 -3.83714e-09 -4.03601e-09 -3.41548e-09 -3.83714e-09 7.44316e-09 8.39994e-09 -3.83714e-09 -4.03601e-09 8.39994e-09 9.09219e-09 1.16332e-09 8.19699e-10 -4.03601e-09 -2.53304e-10 8.19699e-10 1.12577e-09 -2.53304e-10 1.94799e-09 -4.03601e-09 -2.53304e-10 9.09219e-09 -9.20745e-10 -2.53304e-10 1.94799e-09 -9.20745e-10 2.93902e-09 7.73474e-09 7.73474e-09 -1.04647e-08 -1.04647e-08 7.73474e-09 7.73475e-09 -1.04647e-08 -1.04647e-08 -1.04647e-08 -1.04647e-08 -5.08599e-08 -5.08599e-08 -1.04647e-08 -1.04647e-08 -5.08599e-08 -5.08599e-08 7.73475e-09 7.73471e-09 -1.04647e-08 -1.04647e-08 7.73471e-09 7.73483e-09 -1.04647e-08 -1.04647e-08 -1.04647e-08 -1.04647e-08 -5.08599e-08 -5.08597e-08 -1.04647e-08 -1.04647e-08 -5.08597e-08 -5.08605e-08 -5.08599e-08 -5.08599e-08 3.07482e-07 3.07482e-07 -5.08599e-08 -5.08599e-08 3.07482e-07 3.07483e-07 3.07482e-07 3.07482e-07 -1.37003e-06 -1.37003e-06 3.07482e-07 3.07483e-07 -1.37003e-06 -1.37003e-06 -5.08599e-08 -5.08597e-08 3.07483e-07 3.07482e-07 -5.08597e-08 -5.08605e-08 3.07482e-07 3.07484e-07 3.07483e-07 3.07482e-07 -1.37003e-06 -1.37002e-06 3.07482e-07 3.07484e-07 -1.37002e-06 -1.37003e-06 7.73483e-09 7.73461e-09 -1.04647e-08 -1.04648e-08 7.73461e-09 7.73473e-09 -1.04648e-08 -1.04643e-08 -1.04647e-08 -1.04