# vtk DataFile Version 3.0
#This file was generated by the deal.II library on 2022/11/2 at 18:44:49
ASCII
DATASET UNSTRUCTURED_GRID

POINTS 4096 double
0 0.5 0
0.03125 0.5 0
0 0.53125 0
0.03125 0.53125 0
0.03125 0.5 0
0.0625 0.5 0
0.03125 0.53125 0
0.0625 0.53125 0
0 0.53125 0
0.03125 0.53125 0
0 0.5625 0
0.03125 0.5625 0
0.03125 0.53125 0
0.0625 0.53125 0
0.03125 0.5625 0
0.0625 0.5625 0
0.0625 0.5 0
0.09375 0.5 0
0.0625 0.53125 0
0.09375 0.53125 0
0.09375 0.5 0
0.125 0.5 0
0.09375 0.53125 0
0.125 0.53125 0
0.0625 0.53125 0
0.09375 0.53125 0
0.0625 0.5625 0
0.09375 0.5625 0
0.09375 0.53125 0
0.125 0.53125 0
0.09375 0.5625 0
0.125 0.5625 0
0 0.5625 0
0.03125 0.5625 0
0 0.59375 0
0.03125 0.59375 0
0.03125 0.5625 0
0.0625 0.5625 0
0.03125 0.59375 0
0.0625 0.59375 0
0 0.59375 0
0.03125 0.59375 0
0 0.625 0
0.03125 0.625 0
0.03125 0.59375 0
0.0625 0.59375 0
0.03125 0.625 0
0.0625 0.625 0
0.0625 0.5625 0
0.09375 0.5625 0
0.0625 0.59375 0
0.09375 0.59375 0
0.09375 0.5625 0
0.125 0.5625 0
0.09375 0.59375 0
0.125 0.59375 0
0.0625 0.59375 0
0.09375 0.59375 0
0.0625 0.625 0
0.09375 0.625 0
0.09375 0.59375 0
0.125 0.59375 0
0.09375 0.625 0
0.125 0.625 0
0.125 0.5 0
0.15625 0.5 0
0.125 0.53125 0
0.15625 0.53125 0
0.15625 0.5 0
0.1875 0.5 0
0.15625 0.53125 0
0.1875 0.53125 0
0.125 0.53125 0
0.15625 0.53125 0
0.125 0.5625 0
0.15625 0.5625 0
0.15625 0.53125 0
0.1875 0.53125 0
0.15625 0.5625 0
0.1875 0.5625 0
0.1875 0.5 0
0.21875 0.5 0
0.1875 0.53125 0
0.21875 0.53125 0
0.21875 0.5 0
0.25 0.5 0
0.21875 0.53125 0
0.25 0.53125 0
0.1875 0.53125 0
0.21875 0.53125 0
0.1875 0.5625 0
0.21875 0.5625 0
0.21875 0.53125 0
0.25 0.53125 0
0.21875 0.5625 0
0.25 0.5625 0
0.125 0.5625 0
0.15625 0.5625 0
0.125 0.59375 0
0.15625 0.59375 0
0.15625 0.5625 0
0.1875 0.5625 0
0.15625 0.59375 0
0.1875 0.59375 0
0.125 0.59375 0
0.15625 0.59375 0
0.125 0.625 0
0.15625 0.625 0
0.15625 0.59375 0
0.1875 0.59375 0
0.15625 0.625 0
0.1875 0.625 0
0.1875 0.5625 0
0.21875 0.5625 0
0.1875 0.59375 0
0.21875 0.59375 0
0.21875 0.5625 0
0.25 0.5625 0
0.21875 0.59375 0
0.25 0.59375 0
0.1875 0.59375 0
0.21875 0.59375 0
0.1875 0.625 0
0.21875 0.625 0
0.21875 0.59375 0
0.25 0.59375 0
0.21875 0.625 0
0.25 0.625 0
0 0.625 0
0.03125 0.625 0
0 0.65625 0
0.03125 0.65625 0
0.03125 0.625 0
0.0625 0.625 0
0.03125 0.65625 0
0.0625 0.65625 0
0 0.65625 0
0.03125 0.65625 0
0 0.6875 0
0.03125 0.6875 0
0.03125 0.65625 0
0.0625 0.65625 0
0.03125 0.6875 0
0.0625 0.6875 0
0.0625 0.625 0
0.09375 0.625 0
0.0625 0.65625 0
0.09375 0.65625 0
0.09375 0.625 0
0.125 0.625 0
0.09375 0.65625 0
0.125 0.65625 0
0.0625 0.65625 0
0.09375 0.65625 0
0.0625 0.6875 0
0.09375 0.6875 0
0.09375 0.65625 0
0.125 0.65625 0
0.09375 0.6875 0
0.125 0.6875 0
0 0.6875 0
0.03125 0.6875 0
0 0.71875 0
0.03125 0.71875 0
0.03125 0.6875 0
0.0625 0.6875 0
0.03125 0.71875 0
0.0625 0.71875 0
0 0.71875 0
0.03125 0.71875 0
0 0.75 0
0.03125 0.75 0
0.03125 0.71875 0
0.0625 0.71875 0
0.03125 0.75 0
0.0625 0.75 0
0.0625 0.6875 0
0.09375 0.6875 0
0.0625 0.71875 0
0.09375 0.71875 0
0.09375 0.6875 0
0.125 0.6875 0
0.09375 0.71875 0
0.125 0.71875 0
0.0625 0.71875 0
0.09375 0.71875 0
0.0625 0.75 0
0.09375 0.75 0
0.09375 0.71875 0
0.125 0.71875 0
0.09375 0.75 0
0.125 0.75 0
0.125 0.625 0
0.15625 0.625 0
0.125 0.65625 0
0.15625 0.65625 0
0.15625 0.625 0
0.1875 0.625 0
0.15625 0.65625 0
0.1875 0.65625 0
0.125 0.65625 0
0.15625 0.65625 0
0.125 0.6875 0
0.15625 0.6875 0
0.15625 0.65625 0
0.1875 0.65625 0
0.15625 0.6875 0
0.1875 0.6875 0
0.1875 0.625 0
0.21875 0.625 0
0.1875 0.65625 0
0.21875 0.65625 0
0.21875 0.625 0
0.25 0.625 0
0.21875 0.65625 0
0.25 0.65625 0
0.1875 0.65625 0
0.21875 0.65625 0
0.1875 0.6875 0
0.21875 0.6875 0
0.21875 0.65625 0
0.25 0.65625 0
0.21875 0.6875 0
0.25 0.6875 0
0.125 0.6875 0
0.15625 0.6875 0
0.125 0.71875 0
0.15625 0.71875 0
0.15625 0.6875 0
0.1875 0.6875 0
0.15625 0.71875 0
0.1875 0.71875 0
0.125 0.71875 0
0.15625 0.71875 0
0.125 0.75 0
0.15625 0.75 0
0.15625 0.71875 0
0.1875 0.71875 0
0.15625 0.75 0
0.1875 0.75 0
0.1875 0.6875 0
0.21875 0.6875 0
0.1875 0.71875 0
0.21875 0.71875 0
0.21875 0.6875 0
0.25 0.6875 0
0.21875 0.71875 0
0.25 0.71875 0
0.1875 0.71875 0
0.21875 0.71875 0
0.1875 0.75 0
0.21875 0.75 0
0.21875 0.71875 0
0.25 0.71875 0
0.21875 0.75 0
0.25 0.75 0
0.25 0.5 0
0.28125 0.5 0
0.25 0.53125 0
0.28125 0.53125 0
0.28125 0.5 0
0.3125 0.5 0
0.28125 0.53125 0
0.3125 0.53125 0
0.25 0.53125 0
0.28125 0.53125 0
0.25 0.5625 0
0.28125 0.5625 0
0.28125 0.53125 0
0.3125 0.53125 0
0.28125 0.5625 0
0.3125 0.5625 0
0.3125 0.5 0
0.34375 0.5 0
0.3125 0.53125 0
0.34375 0.53125 0
0.34375 0.5 0
0.375 0.5 0
0.34375 0.53125 0
0.375 0.53125 0
0.3125 0.53125 0
0.34375 0.53125 0
0.3125 0.5625 0
0.34375 0.5625 0
0.34375 0.53125 0
0.375 0.53125 0
0.34375 0.5625 0
0.375 0.5625 0
0.25 0.5625 0
0.28125 0.5625 0
0.25 0.59375 0
0.28125 0.59375 0
0.28125 0.5625 0
0.3125 0.5625 0
0.28125 0.59375 0
0.3125 0.59375 0
0.25 0.59375 0
0.28125 0.59375 0
0.25 0.625 0
0.28125 0.625 0
0.28125 0.59375 0
0.3125 0.59375 0
0.28125 0.625 0
0.3125 0.625 0
0.3125 0.5625 0
0.34375 0.5625 0
0.3125 0.59375 0
0.34375 0.59375 0
0.34375 0.5625 0
0.375 0.5625 0
0.34375 0.59375 0
0.375 0.59375 0
0.3125 0.59375 0
0.34375 0.59375 0
0.3125 0.625 0
0.34375 0.625 0
0.34375 0.59375 0
0.375 0.59375 0
0.34375 0.625 0
0.375 0.625 0
0.375 0.5 0
0.40625 0.5 0
0.375 0.53125 0
0.40625 0.53125 0
0.40625 0.5 0
0.4375 0.5 0
0.40625 0.53125 0
0.4375 0.53125 0
0.375 0.53125 0
0.40625 0.53125 0
0.375 0.5625 0
0.40625 0.5625 0
0.40625 0.53125 0
0.4375 0.53125 0
0.40625 0.5625 0
0.4375 0.5625 0
0.4375 0.5 0
0.46875 0.5 0
0.4375 0.53125 0
0.46875 0.53125 0
0.46875 0.5 0
0.5 0.5 0
0.46875 0.53125 0
0.5 0.53125 0
0.4375 0.53125 0
0.46875 0.53125 0
0.4375 0.5625 0
0.46875 0.5625 0
0.46875 0.53125 0
0.5 0.53125 0
0.46875 0.5625 0
0.5 0.5625 0
0.375 0.5625 0
0.40625 0.5625 0
0.375 0.59375 0
0.40625 0.59375 0
0.40625 0.5625 0
0.4375 0.5625 0
0.40625 0.59375 0
0.4375 0.59375 0
0.375 0.59375 0
0.40625 0.59375 0
0.375 0.625 0
0.40625 0.625 0
0.40625 0.59375 0
0.4375 0.59375 0
0.40625 0.625 0
0.4375 0.625 0
0.4375 0.5625 0
0.46875 0.5625 0
0.4375 0.59375 0
0.46875 0.59375 0
0.46875 0.5625 0
0.5 0.5625 0
0.46875 0.59375 0
0.5 0.59375 0
0.4375 0.59375 0
0.46875 0.59375 0
0.4375 0.625 0
0.46875 0.625 0
0.46875 0.59375 0
0.5 0.59375 0
0.46875 0.625 0
0.5 0.625 0
0.25 0.625 0
0.28125 0.625 0
0.25 0.65625 0
0.28125 0.65625 0
0.28125 0.625 0
0.3125 0.625 0
0.28125 0.65625 0
0.3125 0.65625 0
0.25 0.65625 0
0.28125 0.65625 0
0.25 0.6875 0
0.28125 0.6875 0
0.28125 0.65625 0
0.3125 0.65625 0
0.28125 0.6875 0
0.3125 0.6875 0
0.3125 0.625 0
0.34375 0.625 0
0.3125 0.65625 0
0.34375 0.65625 0
0.34375 0.625 0
0.375 0.625 0
0.34375 0.65625 0
0.375 0.65625 0
0.3125 0.65625 0
0.34375 0.65625 0
0.3125 0.6875 0
0.34375 0.6875 0
0.34375 0.65625 0
0.375 0.65625 0
0.34375 0.6875 0
0.375 0.6875 0
0.25 0.6875 0
0.28125 0.6875 0
0.25 0.71875 0
0.28125 0.71875 0
0.28125 0.6875 0
0.3125 0.6875 0
0.28125 0.71875 0
0.3125 0.71875 0
0.25 0.71875 0
0.28125 0.71875 0
0.25 0.75 0
0.28125 0.75 0
0.28125 0.71875 0
0.3125 0.71875 0
0.28125 0.75 0
0.3125 0.75 0
0.3125 0.6875 0
0.34375 0.6875 0
0.3125 0.71875 0
0.34375 0.71875 0
0.34375 0.6875 0
0.375 0.6875 0
0.34375 0.71875 0
0.375 0.71875 0
0.3125 0.71875 0
0.34375 0.71875 0
0.3125 0.75 0
0.34375 0.75 0
0.34375 0.71875 0
0.375 0.71875 0
0.34375 0.75 0
0.375 0.75 0
0.375 0.625 0
0.40625 0.625 0
0.375 0.65625 0
0.40625 0.65625 0
0.40625 0.625 0
0.4375 0.625 0
0.40625 0.65625 0
0.4375 0.65625 0
0.375 0.65625 0
0.40625 0.65625 0
0.375 0.6875 0
0.40625 0.6875 0
0.40625 0.65625 0
0.4375 0.65625 0
0.40625 0.6875 0
0.4375 0.6875 0
0.4375 0.625 0
0.46875 0.625 0
0.4375 0.65625 0
0.46875 0.65625 0
0.46875 0.625 0
0.5 0.625 0
0.46875 0.65625 0
0.5 0.65625 0
0.4375 0.65625 0
0.46875 0.65625 0
0.4375 0.6875 0
0.46875 0.6875 0
0.46875 0.65625 0
0.5 0.65625 0
0.46875 0.6875 0
0.5 0.6875 0
0.375 0.6875 0
0.40625 0.6875 0
0.375 0.71875 0
0.40625 0.71875 0
0.40625 0.6875 0
0.4375 0.6875 0
0.40625 0.71875 0
0.4375 0.71875 0
0.375 0.71875 0
0.40625 0.71875 0
0.375 0.75 0
0.40625 0.75 0
0.40625 0.71875 0
0.4375 0.71875 0
0.40625 0.75 0
0.4375 0.75 0
0.4375 0.6875 0
0.46875 0.6875 0
0.4375 0.71875 0
0.46875 0.71875 0
0.46875 0.6875 0
0.5 0.6875 0
0.46875 0.71875 0
0.5 0.71875 0
0.4375 0.71875 0
0.46875 0.71875 0
0.4375 0.75 0
0.46875 0.75 0
0.46875 0.71875 0
0.5 0.71875 0
0.46875 0.75 0
0.5 0.75 0
0 0.75 0
0.03125 0.75 0
0 0.78125 0
0.03125 0.78125 0
0.03125 0.75 0
0.0625 0.75 0
0.03125 0.78125 0
0.0625 0.78125 0
0 0.78125 0
0.03125 0.78125 0
0 0.8125 0
0.03125 0.8125 0
0.03125 0.78125 0
0.0625 0.78125 0
0.03125 0.8125 0
0.0625 0.8125 0
0.0625 0.75 0
0.09375 0.75 0
0.0625 0.78125 0
0.09375 0.78125 0
0.09375 0.75 0
0.125 0.75 0
0.09375 0.78125 0
0.125 0.78125 0
0.0625 0.78125 0
0.09375 0.78125 0
0.0625 0.8125 0
0.09375 0.8125 0
0.09375 0.78125 0
0.125 0.78125 0
0.09375 0.8125 0
0.125 0.8125 0
0 0.8125 0
0.03125 0.8125 0
0 0.84375 0
0.03125 0.84375 0
0.03125 0.8125 0
0.0625 0.8125 0
0.03125 0.84375 0
0.0625 0.84375 0
0 0.84375 0
0.03125 0.84375 0
0 0.875 0
0.03125 0.875 0
0.03125 0.84375 0
0.0625 0.84375 0
0.03125 0.875 0
0.0625 0.875 0
0.0625 0.8125 0
0.09375 0.8125 0
0.0625 0.84375 0
0.09375 0.84375 0
0.09375 0.8125 0
0.125 0.8125 0
0.09375 0.84375 0
0.125 0.84375 0
0.0625 0.84375 0
0.09375 0.84375 0
0.0625 0.875 0
0.09375 0.875 0
0.09375 0.84375 0
0.125 0.84375 0
0.09375 0.875 0
0.125 0.875 0
0.125 0.75 0
0.15625 0.75 0
0.125 0.78125 0
0.15625 0.78125 0
0.15625 0.75 0
0.1875 0.75 0
0.15625 0.78125 0
0.1875 0.78125 0
0.125 0.78125 0
0.15625 0.78125 0
0.125 0.8125 0
0.15625 0.8125 0
0.15625 0.78125 0
0.1875 0.78125 0
0.15625 0.8125 0
0.1875 0.8125 0
0.1875 0.75 0
0.21875 0.75 0
0.1875 0.78125 0
0.21875 0.78125 0
0.21875 0.75 0
0.25 0.75 0
0.21875 0.78125 0
0.25 0.78125 0
0.1875 0.78125 0
0.21875 0.78125 0
0.1875 0.8125 0
0.21875 0.8125 0
0.21875 0.78125 0
0.25 0.78125 0
0.21875 0.8125 0
0.25 0.8125 0
0.125 0.8125 0
0.15625 0.8125 0
0.125 0.84375 0
0.15625 0.84375 0
0.15625 0.8125 0
[...]
POINT_DATA 4096
SCALARS x_dis double 1
LOOKUP_TABLE default
-1.07458e-13 2.25524e-14 -2.50731e-12 -1.20509e-12 2.25524e-14 -4.01265e-13 -1.20509e-12 8.13155e-13 -2.50731e-12 -1.20509e-12 2.73926e-12 4.85464e-12 -1.20509e-12 8.13155e-13 4.85464e-12 -9.42428e-14 -4.01265e-13 -4.80334e-13 8.13155e-13 1.10309e-12 -4.80334e-13 -4.96815e-13 1.10309e-12 1.06962e-12 8.13155e-13 1.10309e-12 -9.42428e-14 -1.0317e-12 1.10309e-12 1.06962e-12 -1.0317e-12 -3.27352e-13 2.73926e-12 4.85464e-12 -4.3595e-11 -2.79636e-11 4.85464e-12 -9.42428e-14 -2.79636e-11 -8.2872e-12 -4.3595e-11 -2.79636e-11 5.99292e-11 8.20233e-11 -2.79636e-11 -8.2872e-12 8.20233e-11 5.46214e-11 -9.42428e-14 -1.0317e-12 -8.2872e-12 -5.52367e-12 -1.0317e-12 -3.27352e-13 -5.52367e-12 -8.78197e-12 -8.2872e-12 -5.52367e-12 5.46214e-11 5.76939e-11 -5.52367e-12 -8.78197e-12 5.76939e-11 7.3662e-11 -4.96815e-13 -4.34471e-13 1.06962e-12 9.11772e-13 -4.34471e-13 -4.46287e-13 9.11772e-13 9.45344e-13 1.06962e-12 9.11772e-13 -3.27352e-13 -4.12609e-14 9.11772e-13 9.45344e-13 -4.12609e-14 -2.25179e-13 -4.46287e-13 -4.52887e-13 9.45344e-13 9.52494e-13 -4.52887e-13 -4.48324e-13 9.52494e-13 9.45194e-13 9.45344e-13 9.52494e-13 -2.25179e-13 -2.09207e-13 9.52494e-13 9.45194e-13 -2.09207e-13 -1.9184e-13 -3.27352e-13 -4.12609e-14 -8.78197e-12 -8.62607e-12 -4.12609e-14 -2.25179e-13 -8.62607e-12 -8.32857e-12 -8.78197e-12 -8.62607e-12 7.3662e-11 7.0705e-11 -8.62607e-12 -8.32857e-12 7.0705e-11 6.9137e-11 -2.25179e-13 -2.09207e-13 -8.32857e-12 -8.49297e-12 -2.09207e-13 -1.9184e-13 -8.49297e-12 -8.45632e-12 -8.32857e-12 -8.49297e-12 6.9137e-11 6.99955e-11 -8.49297e-12 -8.45632e-12 6.99955e-11 6.98231e-11 5.99292e-11 8.20233e-11 -5.59475e-10 -3.74089e-10 8.20233e-11 5.46214e-11 -3.74089e-10 -2.72522e-10 -5.59475e-10 -3.74089e-10 5.33135e-10 7.42848e-10 -3.74089e-10 -2.72522e-10 7.42848e-10 1.01617e-09 5.46214e-11 5.76939e-11 -2.72522e-10 -2.77663e-10 5.76939e-11 7.3662e-11 -2.77663e-10 -3.32663e-10 -2.72522e-10 -2.77663e-10 1.01617e-09 1.2246e-09 -2.77663e-10 -3.32663e-10 1.2246e-09 1.38153e-09 5.33135e-10 7.42848e-10 -5.30982e-09 -3.29652e-09 7.42848e-10 1.01617e-09 -3.29652e-09 -3.94207e-09 -5.30982e-09 -3.29652e-09 -4.78952e-09 1.82073e-09 -3.29652e-09 -3.94207e-09 1.82073e-09 1.06882e-08 1.01617e-09 1.2246e-09 -3.94207e-09 -4.44017e-09 1.2246e-09 1.38153e-09 -4.44017e-09 -4.75183e-09 -3.94207e-09 -4.44017e-09 1.06882e-08 1.28663e-08 -4.44017e-09 -4.75183e-09 1.28663e-08 1.30644e-08 7.3662e-11 7.0705e-11 -3.32663e-10 -3.159e-10 7.0705e-11 6.9137e-11 -3.159e-10 -3.15057e-10 -3.32663e-10 -3.159e-10 1.38153e-09 1.32391e-09 -3.159e-10 -3.15057e-10 1.32391e-09 1.31681e-09 6.9137e-11 6.99955e-11 -3.15057e-10 -3.17275e-10 6.99955e-11 6.98231e-11 -3.17275e-10 -3.16524e-10 -3.15057e-10 -3.17275e-10 1.31681e-09 1.32291e-09 -3.17275e-10 -3.16524e-10 1.32291e-09 1.32142e-09 1.38153e-09 1.32391e-09 -4.75183e-09 -4.61996e-09 1.32391e-09 1.31681e-09 -4.61996e-09 -4.61735e-09 -4.75183e-09 -4.61996e-09 1.30644e-08 1.26008e-08 -4.61996e-09 -4.61735e-09 1.26008e-08 1.25942e-08 1.31681e-09 1.32291e-09 -4.61735e-09 -4.62939e-09 1.32291e-09 1.32142e-09 -4.62939e-09 -4.62611e-09 -4.61735e-09 -4.62939e-09 1.25942e-08 1.26149e-08 -4.62939e-09 -4.62611e-09 1.26149e-08 1.26071e-08 -4.48324e-13 -4.49545e-13 9.45194e-13 9.47579e-13 -4.49545e-13 -4.49493e-13 9.47579e-13 9.47091e-13 9.45194e-13 9.47579e-13 -1.9184e-13 -2.00833e-13 9.47579e-13 9.47091e-13 -2.00833e-13 -1.98679e-13 -4.49493e-13 -4.49399e-13 9.47091e-13 9.4719e-13 -4.49399e-13 -4.49386e-13 9.4719e-13 9.47123e-13 9.47091e-13 9.4719e-13 -1.98679e-13 -1.98969e-13 9.4719e-13 9.47123e-13 -1.98969e-13 -1.98766e-13 -1.9184e-13 -2.00833e-13 -8.45632e-12 -8.45821e-12 -2.00833e-13 -1.98679e-13 -8.45821e-12 -8.45975e-12 -8.45632e-12 -8.45821e-12 6.98231e-11 6.98363e-11 -8.45821e-12 -8.45975e-12 6.98363e-11 6.98327e-11 -1.98679e-13 -1.98969e-13 -8.45975e-12 -8.45897e-12 -1.98969e-13 -1.98766e-13 -8.45897e-12 -8.45936e-12 -8.45975e-12 -8.45897e-12 6.98327e-11 6.9836e-11 -8.45897e-12 -8.45936e-12 6.9836e-11 6.98353e-11 -4.49386e-13 -4.49615e-13 9.47123e-13 9.47293e-13 -4.49615e-13 -4.49633e-13 9.47293e-13 9.47408e-13 9.47123e-13 9.47293e-13 -1.98766e-13 -1.99158e-13 9.47293e-13 9.47408e-13 -1.99158e-13 -1.99874e-13 -4.49633e-13 -4.59692e-13 9.47408e-13 9.30538e-13 -4.59692e-13 -4.91098e-13 9.30538e-13 9.58099e-13 9.47408e-13 9.30538e-13 -1.99874e-13 -1.99869e-13 9.30538e-13 9.58099e-13 -1.99869e-13 -2.11326e-13 -1.98766e-13 -1.99158e-13 -8.45936e-12 -8.45908e-12 -1.99158e-13 -1.99874e-13 -8.45908e-12 -8.45918e-12 -8.45936e-12 -8.45908e-12 6.98353e-11 6.98347e-11 -8.45908e-12 -8.45918e-12 6.98347e-11 6.98352e-11 -1.99874e-13 -1.99869e-13 -8.45918e-12 -8.45981e-12 -1.99869e-13 -2.11326e-13 -8.45981e-12 -8.45787e-12 -8.45918e-12 -8.45981e-12 6.98352e-11 6.9835e-11 -8.45981e-12 -8.45787e-12 6.9835e-11 6.98347e-11 6.98231e-11 6.98363e-11 -3.16524e-10 -3.16707e-10 6.98363e-11 6.98327e-11 -3.16707e-10 -3.16649e-10 -3.16524e-10 -3.16707e-10 1.32142e-09 1.32174e-09 -3.16707e-10 -3.16649e-10 1.32174e-09 1.32155e-09 6.98327e-11 6.9836e-11 -3.16649e-10 -3.16676e-10 6.9836e-11 6.98353e-11 -3.16676e-10 -3.16666e-10 -3.16649e-10 -3.16676e-10 1.32155e-09 1.32166e-09 -3.16676e-10 -3.16666e-10 1.32166e-09 1.32162e-09 1.32142e-09 1.32174e-09 -4.62611e-09 -4.62669e-09 1.32174e-09 1.32155e-09 -4.62669e-09 -4.62638e-09 -4.62611e-09 -4.62669e-09 1.26071e-08 1.2608e-08 -4.62669e-09 -4.62638e-09 1.2608e-08 1.26077e-08 1.32155e-09 1.32166e-09 -4.62638e-09 -4.62663e-09 1.32166e-09 1.32162e-09 -4.62663e-09 -4.62649e-09 -4.62638e-09 -4.62663e-09 1.26077e-08 1.26081e-08 -4.62663e-09 -4.62649e-09 1.26081e-08 1.26078e-08 6.98353e-11 6.98347e-11 -3.16666e-10 -3.16668e-10 6.98347e-11 6.98352e-11 -3.16668e-10 -3.16668e-10 -3.16666e-10 -3.16668e-10 1.32162e-09 1.32163e-09 -3.16668e-10 -3.16668e-10 1.32163e-09 1.32163e-09 6.98352e-11 6.9835e-11 -3.16668e-10 -3.16668e-10 6.9835e-11 6.98347e-11 -3.16668e-10 -3.16667e-10 -3.16668e-10 -3.16668e-10 1.32163e-09 1.32163e-09 -3.16668e-10 -3.16667e-10 1.32163e-09 1.32163e-09 1.32162e-09 1.32163e-09 -4.62649e-09 -4.62654e-09 1.32163e-09 1.32163e-09 -4.62654e-09 -4.62653e-09 -4.62649e-09 -4.62654e-09 1.26078e-08 1.26079e-08 -4.62654e-09 -4.62653e-09 1.26079e-08 1.26079e-08 1.32163e-09 1.32163e-09 -4.62653e-09 -4.62653e-09 1.32163e-09 1.32163e-09 -4.62653e-09 -4.62653e-09 -4.62653e-09 -4.62653e-09 1.26079e-08 1.26079e-08 -4.62653e-09 -4.62653e-09 1.26079e-08 1.26079e-08 -4.78952e-09 1.82073e-09 -2.32531e-08 -9.24926e-09 1.82073e-09 1.06882e-08 -9.24926e-09 -2.75047e-08 -2.32531e-08 -9.24926e-09 -2.53609e-07 -1.30121e-07 -9.24926e-09 -2.75047e-08 -1.30121e-07 -9.83872e-09 1.06882e-08 1.28663e-08 -2.75047e-08 -3.12478e-08 1.28663e-08 1.30644e-08 -3.12478e-08 -2.81877e-08 -2.75047e-08 -3.12478e-08 -9.83872e-09 1.30165e-08 -3.12478e-08 -2.81877e-08 1.30165e-08 -4.35679e-09 -2.53609e-07 -1.30121e-07 2.36051e-07 3.53588e-07 -1.30121e-07 -9.83872e-09 3.53588e-07 2.41075e-07 2.36051e-07 3.53588e-07 -3.57807e-06 -2.40156e-06 3.53588e-07 2.41075e-07 -2.40156e-06 -1.88803e-06 -9.83872e-09 1.30165e-08 2.41075e-07 2.01138e-07 1.30165e-08 -4.35679e-09 2.01138e-07 2.22662e-07 2.41075e-07 2.01138e-07 -1.88803e-06 -1.41929e-06 2.01138e-07 2.22662e-07 -1.41929e-06 -1.38282e-06 1.30644e-08 1.26008e-08 -2.81877e-08 -2.83067e-08 1.26008e-08 1.25942e-08 -2.83067e-08 -2.82537e-08 -2.81877e-08 -2.83067e-08 -4.35679e-09 -5.70173e-09 -2.83067e-08 -2.82537e-08 -5.70173e-09 -5.57579e-09 1.25942e-08 1.26149e-08 -2.82537e-08 -2.83041e-08 1.26149e-08 1.26071e-08 -2.83041e-08 -2.83035e-08 -2.82537e-08 -2.83041e-08 -5.57579e-09 -5.29906e-09 -2.83041e-08 -2.83035e-08 -5.29906e-09 -5.42416e-09 -4.35679e-09 -5.70173e-09 2.22662e-07 2.14738e-07 -5.70173e-09 -5.57579e-09 2.14738e-07 2.17148e-07 2.22662e-07 2.14738e-07 -1.38282e-06 -1.40389e-06 2.14738e-07 2.17148e-07 -1.40389e-06 -1.42316e-06 -5.57579e-09 -5.29906e-09 2.17148e-07 2.16607e-07 -5.29906e-09 -5.42416e-09 2.16607e-07 2.1653e-07 2.17148e-07 2.16607e-07 -1.42316e-06 -1.41533e-06 2.16607e-07 2.1653e-07 -1.41533e-06 -1.41604e-06 -3.57807e-06 -2.40156e-06 -4.39223e-06 -1.96534e-06 -2.40156e-06 -1.88803e-06 -1.96534e-06 3.13966e-06 -4.39223e-06 -1.96534e-06 -1.83811e-05 5.04027e-06 -1.96534e-06 3.13966e-06 5.04027e-06 4.8559e-06 -1.88803e-06 -1.41929e-06 3.13966e-06 4.505e-06 -1.41929e-06 -1.38282e-06 4.505e-06 4.60923e-06 3.13966e-06 4.505e-06 4.8559e-06 6.23261e-06 4.505e-06 4.60923e-06 6.23261e-06 6.13008e-06 -1.83811e-05 5.04027e-06 -0.000106034 -4.44891e-05 5.04027e-06 4.8559e-06 -4.44891e-05 -3.34804e-05 -0.000106034 -4.44891e-05 -0.00022 -0.00022 -4.44891e-05 -3.34804e-05 -0.00022 -0.00022 4.8559e-06 6.23261e-06 -3.34804e-05 -3.32387e-05 6.23261e-06 6.13008e-06 -3.32387e-05 -3.36606e-05 -3.34804e-05 -3.32387e-05 -0.00022 -0.00022 -3.32387e-05 -3.36606e-05 -0.00022 -0.00022 -1.38282e-06 -1.40389e-06 4.60923e-06 4.46122e-06 -1.40389e-06 -1.42316e-06 4.46122e-06 4.43658e-06 4.60923e-06 4.46122e-06 6.13008e-06 5.90976e-06 4.46122e-06 4.43658e-06 5.90976e-06 5.96934e-06 -1.42316e-06 -1.41533e-06 4.43658e-06 4.4606e-06 -1.41533e-06 -1.41604e-06 4.4606e-06 4.45431e-06 4.43658e-06 4.4606e-06 5.96934e-06 5.97182e-06 4.4606e-06 4.45431e-06 5.97182e-06 5.96429e-06 6.13008e-06 5.90976e-06 -3.36606e-05 -3.37121e-05 5.90976e-06 5.96934e-06 -3.37121e-05 -3.37122e-05 -3.36606e-05 -3.37121e-05 -0.00022 -0.00022 -3.37121e-05 -3.37122e-05 -0.00022 -0.00022 5.96934e-06 5.97182e-06 -3.37122e-05 -3.37031e-05 5.97182e-06 5.96429e-06 -3.37031e-05 -3.37065e-05 -3.37122e-05 -3.37031e-05 -0.00022 -0.00022 -3.37031e-05 -3.37065e-05 -0.00022 -0.00022 1.26071e-08 1.2608e-08 -2.83035e-08 -2.82923e-08 1.2608e-08 1.26077e-08 -2.82923e-08 -2.82987e-08 -2.83035e-08 -2.82923e-08 -5.42416e-09 -5.42351e-09 -2.82923e-08 -2.82987e-08 -5.42351e-09 -5.40349e-09 1.26077e-08 1.26081e-08 -2.82987e-08 -2.82969e-08 1.26081e-08 1.26078e-08 -2.82969e-08 -2.8297e-08 -2.82987e-08 -2.82969e-08 -5.40349e-09 -5.41427e-09 -2.82969e-08 -2.8297e-08 -5.41427e-09 -5.41108e-09 -5.42416e-09 -5.42351e-09 2.1653e-07 2.1668e-07 -5.42351e-09 -5.40349e-09 2.1668e-07 2.16599e-07 2.1653e-07 2.1668e-07 -1.41604e-06 -1.41663e-06 2.1668e-07 2.16599e-07 -1.41663e-06 -1.41629e-06 -5.40349e-09 -5.41427e-09 2.16599e-07 2.16626e-07 -5.41427e-09 -5.41108e-09 2.16626e-07 2.16621e-07 2.16599e-07 2.16626e-07 -1.41629e-06 -1.41639e-06 2.16626e-07 2.16621e-07 -1.41639e-06 -1.41637e-06 1.26078e-08 1.26079e-08 -2.8297e-08 -2.82972e-08 1.26079e-08 1.26079e-08 -2.82972e-08 -2.8297e-08 -2.8297e-08 -2.82972e-08 -5.41108e-09 -5.41146e-09 -2.82972e-08 -2.8297e-08 -5.41146e-09 -5.41164e-09 1.26079e-08 1.26079e-08 -2.8297e-08 -2.82971e-08 1.26079e-08 1.26079e-08 -2.82971e-08 -2.82971e-08 -2.8297e-08 -2.82971e-08 -5.41164e-09 -5.4115e-09 -2.82971e-08 -2.82971e-08 -5.4115e-09 -5.41155e-09 -5.41108e-09 -5.41146e-09 2.16621e-07 2.16621e-07 -5.41146e-09 -5.41164e-09 2.16621e-07 2.16621e-07 2.16621e-07 2.16621e-07 -1.41637e-06 -1.41637e-06 2.16621e-07 2.16621e-07 -1.41637e-06 -1.41637e-06 -5.41164e-09 -5.4115e-09 2.16621e-07 2.16621e-07 -5.4115e-09 -5.41155e-09 2.16621e-07 2.16621e-07 2.16621e-07 2.16621e-07 -1.41637e-06 -1.41637e-06 2.16621e-07 2.16621e-07 -1.41637e-06 -1.41637e-06 -1.41604e-06 -1.41663e-06 4.45431e-06 4.45417e-06 -1.41663e-06 -1.41629e-06 4.45417e-06 4.45496e-06 4.45431e-06 4.45417e-06 5.96429e-06 5.96745e-06 4.45417e-06 4.45496e-06 5.96745e-06 5.9667e-06 -1.41629e-06 -1.41639e-06 4.45496e-06 4.45458e-06 -1.41639e-06 -1.41637e-06 4.45458e-06 4.45469e-06 4.45496e-06 4.45458e-06 5.9667e-06 5.96676e-06 4.45458e-06 4.45469e-06 5.96676e-06 5.9668e-06 5.96429e-06 5.96745e-06 -3.37065e-05 -3.37061e-05 5.96745e-06 5.9667e-06 -3.37061e-05 -3.37059e-05 -3.37065e-05 -3.37061e-05 -0.00022 -0.00022 -3.37061e-05 -3.37059e-05 -0.00022 -0.00022 5.9667e-06 5.96676e-06 -3.37059e-05 -3.3706e-05 5.96676e-06 5.9668e-06 -3.3706e-05 -3.3706e-05 -3.37059e-05 -3.3706e-05 -0.00022 -0.00022 -3.3706e-05 -3.3706e-05 -0.00022 -0.00022 -1.41637e-06 -1.41637e-06 4.45469e-06 4.45467e-06 -1.41637e-06 -1.41637e-06 4.45467e-06 4.45467e-06 4.45469e-06 4.45467e-06 5.9668e-06 5.96678e-06 4.45467e-06 4.45467e-06 5.96678e-06 5.96679e-06 -1.41637e-06 -1.41637e-06 4.45467e-06 4.45467e-06 -1.41637e-06 -1.41637e-06 4.45467e-06 4.45467e-06 4.45467e-06 4.45467e-06 5.96679e-06 5.96678e-06 4.45467e-06 4.45467e-06 5.96678e-06 5.96678e-06 5.9668e-06 5.96678e-06 -3.3706e-05 -3.3706e-05 5.96678e-06 5.96679e-06 -3.3706e-05 -3.3706e-05 -3.3706e-05 -3.3706e-05 -0.00022 -0.00022 -3.3706e-05 -3.3706e-05 -0.00022 -0.00022 5.96679e-06 5.96678e-06 -3.3706e-05 -3.3706e-05 5.96678e-06 5.96678e-06 -3.3706e-05 -3.3706e-05 -3.3706e-05 -3.3706e-05 -0.00022 -0.00022 -3.3706e-05 -3.3706e-05 -0.00022 -0.00022 -4.91098e-13 -9.77394e-13 9.58099e-13 1.13462e-12 -9.77394e-13 -7.72993e-13 1.13462e-12 1.06234e-12 9.58099e-13 1.13462e-12 -2.11326e-13 -2.62199e-13 1.13462e-12 1.06234e-12 -2.62199e-13 -2.45569e-13 -7.72993e-13 -8.28688e-13 1.06234e-12 1.07631e-12 -8.28688e-13 -8.23391e-13 1.07631e-12 1.07454e-12 1.06234e-12 1.07631e-12 -2.45569e-13 -2.44891e-13 1.07631e-12 1.07454e-12 -2.44891e-13 -2.45747e-13 -2.11326e-13 -2.62199e-13 -8.45787e-12 -8.44261e-12 -2.62199e-13 -2.45569e-13 -8.44261e-12 -8.4434e-12 -8.45787e-12 -8.44261e-12 6.98347e-11 6.98296e-11 -8.44261e-12 -8.4434e-12 6.98296e-11 6.98296e-11 -2.45569e-13 -2.44891e-13 -8.4434e-12 -8.44382e-12 -2.44891e-13 -2.45747e-13 -8.44382e-12 -8.4432e-12 -8.4434e-12 -8.44382e-12 6.98296e-11 6.98305e-11 -8.44382e-12 -8.4432e-12 6.98305e-11 6.98298e-11 -8.23391e-13 -8.22792e-13 1.07454e-12 1.07424e-12 -8.22792e-13 -8.23475e-13 1.07424e-12 1.07431e-12 1.07454e-12 1.07424e-12 -2.45747e-13 -2.45516e-13 1.07424e-12 1.07431e-12 -2.45516e-13 -2.45434e-13 -8.23475e-13 -8.23565e-13 1.07431e-12 1.07472e-12 -8.23565e-13 -8.22347e-13 1.07472e-12 1.07424e-12 1.07431e-12 1.07472e-12 -2.45434e-13 -2.45793e-13 1.07472e-12 1.07424e-12 -2.45793e-13 -2.47728e-13 -2.45747e-13 -2.45516e-13 -8.4432e-12 -8.44366e-12 -2.45516e-13 -2.45434e-13 -8.44366e-12 -8.44341e-12 -8.4432e-12 -8.44366e-12 6.98298e-11 6.98307e-11 -8.44366e-12 -8.44341e-12 6.98307e-11 6.98288e-11 -2.45434e-13 -2.45793e-13 -8.44341e-12 -8.44508e-12 -2.45793e-13 -2.47728e-13 -8.44508e-12 -8.42768e-12 -8.44341e-12 -8.44508e-12 6.98288e-11 6.98386e-11 -8.44508e-12 -8.42768e-12 6.98386e-11 6.97877e-11 6.98347e-11 6.98296e-11 -3.16667e-10 -3.16666e-10 6.98296e-11 6.98296e-11 -3.16666e-10 -3.16666e-10 -3.16667e-10 -3.16666e-10 1.32163e-09 1.32163e-09 -3.16666e-10 -3.16666e-10 1.32163e-09 1.32163e-09 6.98296e-11 6.98305e-11 -3.16666e-10 -3.16667e-10 6.98305e-11 6.98298e-11 -3.16667e-10 -3.16666e-10 -3.16666e-10 -3.16667e-10 1.32163e-09 1.32163e-09 -3.16667e-10 -3.16666e-10 1.32163e-09 1.32163e-09 1.32163e-09 1.32163e-09 -4.62653e-09 -4.62653e-09 1.32163e-09 1.32163e-09 -4.62653e-09 -4.62653e-09 -4.62653e-09 -4.62653e-09 1.26079e-08 1.26079e-08 -4.62653e-09 -4.62653e-09 1.26079e-08 1.26079e-08 1.32163e-09 1.32163e-09 -4.62653e-09 -4.62652e-09 1.32163e-09 1.32163e-09 -4.62652e-09 -4.62656e-09 -4.62653e-09 -4.62652e-09 1.26079e-08 1.26078e-08 -4.62652e-09 -4.62656e-09 1.26078e-08 1.2608e-08 6.98298e-11 6.98307e-11 -3.16666e-10 -3.16665e-10 6.98307e-11 6.98288e-11 -3.16665e-10 -3.16667e-10 -3.16666e-10 -3.16665e-10 1.32163e-09 1.32161e-09 -3.16665e-10 -3.16667e-10 1.32161e-09 1.32164e-09 6.98288e-11 6.98386e-11 -3.16667e-10 -3.16691e-10 6.98386e-11 6.97877e-11 -3.16691e-10 -3.16533e-10 -3.16667e-10 -3.16691e-10 1.32164e-09 1.32168e-09 -3.16691e-10 -3.16533e-10 1.32168e-09 1.32144e-09 1.32163e-09 1.32161e-09 -4.62656e-09 -4.62645e-09 1.32161e-09 1.32164e-09 -4.62645e-09 -4.62664e-09 -4.62656e-09 -4.62645e-09 1.2608e-08 1.26076e-08 -4.62645e-09 -4.62664e-09 1.26076e-08 1.2608e-08 1.32164e-09 1.32168e-09 -4.62664e-09 -4.62669e-09 1.32168e-09 1.32144e-09 -4.62669e-09 -4.62563e-09 -4.62664e-09 -4.62669e-09 1.2608e-08 1.26088e-08 -4.62669e-09 -4.62563e-09 1.26088e-08 1.26052e-08 -8.22347e-13 -8.24179e-13 1.07424e-12 1.07037e-12 -8.24179e-13 -8.27993e-13 1.07037e-12 1.09088e-12 1.07424e-12 1.07037e-12 -2.47728e-13 -2.31444e-13 1.07037e-12 1.09088e-12 -2.31444e-13 -2.82176e-13 -8.27993e-13 -8.04375e-13 1.09088e-12 1.05906e-12 -8.04375e-13 -8.39718e-13 1.05906e-12 9.83029e-13 1.09088e-12 1.05906e-12 -2.82176e-13 -2.71056e-13 1.05906e-12 9.83029e-13 -2.71056e-13 1.02825e-13 -2.47728e-13 -2.31444e-13 -8.42768e-12 -8.51116e-12 -2.31444e-13 -2.82176e-13 -8.51116e-12 -8.33007e-12 -8.42768e-12 -8.51116e-12 6.97877e-11 6.99558e-11 -8.51116e-12 -8.33007e-12 6.99558e-11 6.97452e-11 -2.82176e-13 -2.71056e-13 -8.33007e-12 -8.14124e-12 -2.71056e-13 1.02825e-13 -8.14124e-12 -1.05794e-11 -8.33007e-12 -8.14124e-12 6.97452e-11 6.85408e-11 -8.14124e-12 -1.05794e-11 6.85408e-11 7.56435e-11 -8.39718e-13 -9.66065e-13 9.83029e-13 1.37662e-12 -9.66065e-13 -8.47694e-13 1.37662e-12 1.4736e-12 9.83029e-13 1.37662e-12 1.02825e-13 -1.36787e-12 1.37662e-12 1.4736e-12 -1.36787e-12 -2.77825e-12 -8.47694e-13 2.79088e-13 1.4736e-12 -5.10554e-13 2.79088e-13 1.05525e-12 -5.10554e-13 -4.27655e-13 1.4736e-12 -5.10554e-13 -2.77825e-12 5.68477e-12 -5.10554e-13 -4.27655e-13 5.68477e-12 1.36433e-11 1.02825e-13 -1.36787e-12 -1.05794e-11 -5.31501e-12 -1.36787e-12 -2.77825e-12 -5.31501e-12 1.83913e-12 -1.05794e-11 -5.31501e-12 7.56435e-11 5.77793e-11 -5.31501e-12 1.83913e-12 5.77793e-11 3.53529e-11 -2.77825e-12 5.68477e-12 1.83913e-12 -1.99862e-11 5.68477e-12 1.36433e-11 -1.99862e-11 -2.20858e-11 1.83913e-12 -1.99862e-11 3.53529e-11 1.17659e-10 -1.99862e-11 -2.20858e-11 1.17659e-10 1.98206e-10 6.97877e-11 6.99558e-11 -3.16533e-10 -3.16933e-10 6.99558e-11 6.97452e-11 -3.16933e-10 -3.17238e-10 -3.16533e-10 -3.16933e-10 1.32144e-09 1.3215e-09 -3.16933e-10 -3.17238e-10 1.3215e-09 1.32439e-09 6.97452e-11 6.85408e-11 -3.17238e-10 -3.10776e-10 6.85408e-11 7.56435e-11 -3.10776e-10 -3.36106e-10 -3.17238e-10 -3.10776e-10 1.32439e-09 1.31053e-09 -3.10776e-10 -3.36106e-10 1.31053e-09 1.34246e-09 1.32144e-09 1.3215e-09 -4.62563e-09 -4.62632e-09 1.3215e-09 1.32439e-09 -4.62632e-09 -4.64001e-09 -4.62563e-09 -4.62632e-09 1.26052e-08 1.26063e-08 -4.62632e-09 -4.64001e-09 1.26063e-08 1.26343e-08 1.32439e-09 1.31053e-09 -4.64001e-09 -4.58474e-09 1.31053e-09 1.34246e-09 -4.58474e-09 -4.62603e-09 -4.64001e-09 -4.58474e-09 1.26343e-08 1.25725e-08 -4.58474e-09 -4.62603e-09 1.25725e-08 1.23239e-08 7.56435e-11 5.77793e-11 -3.36106e-10 -3.10129e-10 5.77793e-11 3.53529e-11 -3.10129e-10 -2.45059e-10 -3.36106e-10 -3.10129e-10 1.34246e-09 1.28168e-09 -3.10129e-10 -2.45059e-10 1.28168e-09 1.23532e-09 3.53529e-11 1.17659e-10 -2.45059e-10 -2.99695e-10 1.17659e-10 1.98206e-10 -2.99695e-10 -2.60264e-10 -2.45059e-10 -2.99695e-10 1.23532e-09 1.31223e-09 -2.99695e-10 -2.60264e-10 1.31223e-09 1.82389e-09 1.34246e-09 1.28168e-09 -4.62603e-09 -5.01366e-09 1.28168e-09 1.23532e-09 -5.01366e-09 -4.98256e-09 -4.62603e-09 -5.01366e-09 1.23239e-08 1.34458e-08 -5.01366e-09 -4.98256e-09 1.34458e-08 1.39447e-08 1.23532e-09 1.31223e-09 -4.98256e-09 -1.52161e-09 1.31223e-09 1.82389e-09 -1.52161e-09 8.0634e-10 -4.98256e-09 -1.52161e-09 1.39447e-08 3.64285e-09 -1.52161e-09 8.0634e-10 3.64285e-09 8.07208e-09 1.26079e-08 1.26079e-08 -2.82971e-08 -2.82971e-08 1.26079e-08 1.26079e-08 -2.82971e-08 -2.82971e-08 -2.82971e-08 -2.82971e-08 -5.41155e-09 -5.41157e-09 -2.82971e-08 -2.82971e-08 -5.41157e-09 -5.41147e-09 1.26079e-08 1.26078e-08 -2.82971e-08 -2.8297e-08 1.26078e-08 1.2608e-08 -2.8297e-08 -2.82972e-08 -2.82971e-08 -2.8297e-08 -5.41147e-09 -5.4116e-09 -2.8297e-08 -2.82972e-08 -5.4116e-09 -5.41189e-09 -5.41155e-09 -5.41157e-09 2.16621e-07 2.16621e-07 -5.41157e-09 -5.41147e-09 2.16621e-07 2.16621e-07 2.16621e-07 2.16621e-07 -1.41637e-06 -1.41637e-06 2.16621e-07 2.16621e-07 -1.41637e-06 -1.41637e-06 -5.41147e-09 -5.4116e-09 2.16621e-07 2.1662e-07 -5.4116e-09 -5.41189e-09 2.1662e-07 2.16624e-07 2.16621e-07 2.1662e-07 -1.41637e-06 -1.41637e-06 2.1662e-07 2.16624e-07 -1.41637e-06 -1.41638e-06 1.2608e-08 1.26076e-08 -2.82972e-08 -2.82971e-08 1.26076e-08 1.2608e-08 -2.82971e-08 -2.82963e-08 -2.82972e-08 -2.82971e-08 -5.4