# vtk DataFile Version 3.0
#This file was generated by the deal.II library on 2022/11/2 at 18:38:54
ASCII
DATASET UNSTRUCTURED_GRID

POINTS 4096 double
0 0.5 0
0.03125 0.5 0
0 0.53125 0
0.03125 0.53125 0
0.03125 0.5 0
0.0625 0.5 0
0.03125 0.53125 0
0.0625 0.53125 0
0 0.53125 0
0.03125 0.53125 0
0 0.5625 0
0.03125 0.5625 0
0.03125 0.53125 0
0.0625 0.53125 0
0.03125 0.5625 0
0.0625 0.5625 0
0.0625 0.5 0
0.09375 0.5 0
0.0625 0.53125 0
0.09375 0.53125 0
0.09375 0.5 0
0.125 0.5 0
0.09375 0.53125 0
0.125 0.53125 0
0.0625 0.53125 0
0.09375 0.53125 0
0.0625 0.5625 0
0.09375 0.5625 0
0.09375 0.53125 0
0.125 0.53125 0
0.09375 0.5625 0
0.125 0.5625 0
0 0.5625 0
0.03125 0.5625 0
0 0.59375 0
0.03125 0.59375 0
0.03125 0.5625 0
0.0625 0.5625 0
0.03125 0.59375 0
0.0625 0.59375 0
0 0.59375 0
0.03125 0.59375 0
0 0.625 0
0.03125 0.625 0
0.03125 0.59375 0
0.0625 0.59375 0
0.03125 0.625 0
0.0625 0.625 0
0.0625 0.5625 0
0.09375 0.5625 0
0.0625 0.59375 0
0.09375 0.59375 0
0.09375 0.5625 0
0.125 0.5625 0
0.09375 0.59375 0
0.125 0.59375 0
0.0625 0.59375 0
0.09375 0.59375 0
0.0625 0.625 0
0.09375 0.625 0
0.09375 0.59375 0
0.125 0.59375 0
0.09375 0.625 0
0.125 0.625 0
0.125 0.5 0
0.15625 0.5 0
0.125 0.53125 0
0.15625 0.53125 0
0.15625 0.5 0
0.1875 0.5 0
0.15625 0.53125 0
0.1875 0.53125 0
0.125 0.53125 0
0.15625 0.53125 0
0.125 0.5625 0
0.15625 0.5625 0
0.15625 0.53125 0
0.1875 0.53125 0
0.15625 0.5625 0
0.1875 0.5625 0
0.1875 0.5 0
0.21875 0.5 0
0.1875 0.53125 0
0.21875 0.53125 0
0.21875 0.5 0
0.25 0.5 0
0.21875 0.53125 0
0.25 0.53125 0
0.1875 0.53125 0
0.21875 0.53125 0
0.1875 0.5625 0
0.21875 0.5625 0
0.21875 0.53125 0
0.25 0.53125 0
0.21875 0.5625 0
0.25 0.5625 0
0.125 0.5625 0
0.15625 0.5625 0
0.125 0.59375 0
0.15625 0.59375 0
0.15625 0.5625 0
0.1875 0.5625 0
0.15625 0.59375 0
0.1875 0.59375 0
0.125 0.59375 0
0.15625 0.59375 0
0.125 0.625 0
0.15625 0.625 0
0.15625 0.59375 0
0.1875 0.59375 0
0.15625 0.625 0
0.1875 0.625 0
0.1875 0.5625 0
0.21875 0.5625 0
0.1875 0.59375 0
0.21875 0.59375 0
0.21875 0.5625 0
0.25 0.5625 0
0.21875 0.59375 0
0.25 0.59375 0
0.1875 0.59375 0
0.21875 0.59375 0
0.1875 0.625 0
0.21875 0.625 0
0.21875 0.59375 0
0.25 0.59375 0
0.21875 0.625 0
0.25 0.625 0
0 0.625 0
0.03125 0.625 0
0 0.65625 0
0.03125 0.65625 0
0.03125 0.625 0
0.0625 0.625 0
0.03125 0.65625 0
0.0625 0.65625 0
0 0.65625 0
0.03125 0.65625 0
0 0.6875 0
0.03125 0.6875 0
0.03125 0.65625 0
0.0625 0.65625 0
0.03125 0.6875 0
0.0625 0.6875 0
0.0625 0.625 0
0.09375 0.625 0
0.0625 0.65625 0
0.09375 0.65625 0
0.09375 0.625 0
0.125 0.625 0
0.09375 0.65625 0
0.125 0.65625 0
0.0625 0.65625 0
0.09375 0.65625 0
0.0625 0.6875 0
0.09375 0.6875 0
0.09375 0.65625 0
0.125 0.65625 0
0.09375 0.6875 0
0.125 0.6875 0
0 0.6875 0
0.03125 0.6875 0
0 0.71875 0
0.03125 0.71875 0
0.03125 0.6875 0
0.0625 0.6875 0
0.03125 0.71875 0
0.0625 0.71875 0
0 0.71875 0
0.03125 0.71875 0
0 0.75 0
0.03125 0.75 0
0.03125 0.71875 0
0.0625 0.71875 0
0.03125 0.75 0
0.0625 0.75 0
0.0625 0.6875 0
0.09375 0.6875 0
0.0625 0.71875 0
0.09375 0.71875 0
0.09375 0.6875 0
0.125 0.6875 0
0.09375 0.71875 0
0.125 0.71875 0
0.0625 0.71875 0
0.09375 0.71875 0
0.0625 0.75 0
0.09375 0.75 0
0.09375 0.71875 0
0.125 0.71875 0
0.09375 0.75 0
0.125 0.75 0
0.125 0.625 0
0.15625 0.625 0
0.125 0.65625 0
0.15625 0.65625 0
0.15625 0.625 0
0.1875 0.625 0
0.15625 0.65625 0
0.1875 0.65625 0
0.125 0.65625 0
0.15625 0.65625 0
0.125 0.6875 0
0.15625 0.6875 0
0.15625 0.65625 0
0.1875 0.65625 0
0.15625 0.6875 0
0.1875 0.6875 0
0.1875 0.625 0
0.21875 0.625 0
0.1875 0.65625 0
0.21875 0.65625 0
0.21875 0.625 0
0.25 0.625 0
0.21875 0.65625 0
0.25 0.65625 0
0.1875 0.65625 0
0.21875 0.65625 0
0.1875 0.6875 0
0.21875 0.6875 0
0.21875 0.65625 0
0.25 0.65625 0
0.21875 0.6875 0
0.25 0.6875 0
0.125 0.6875 0
0.15625 0.6875 0
0.125 0.71875 0
0.15625 0.71875 0
0.15625 0.6875 0
0.1875 0.6875 0
0.15625 0.71875 0
0.1875 0.71875 0
0.125 0.71875 0
0.15625 0.71875 0
0.125 0.75 0
0.15625 0.75 0
0.15625 0.71875 0
0.1875 0.71875 0
0.15625 0.75 0
0.1875 0.75 0
0.1875 0.6875 0
0.21875 0.6875 0
0.1875 0.71875 0
0.21875 0.71875 0
0.21875 0.6875 0
0.25 0.6875 0
0.21875 0.71875 0
0.25 0.71875 0
0.1875 0.71875 0
0.21875 0.71875 0
0.1875 0.75 0
0.21875 0.75 0
0.21875 0.71875 0
0.25 0.71875 0
0.21875 0.75 0
0.25 0.75 0
0.25 0.5 0
0.28125 0.5 0
0.25 0.53125 0
0.28125 0.53125 0
0.28125 0.5 0
0.3125 0.5 0
0.28125 0.53125 0
0.3125 0.53125 0
0.25 0.53125 0
0.28125 0.53125 0
0.25 0.5625 0
0.28125 0.5625 0
0.28125 0.53125 0
0.3125 0.53125 0
0.28125 0.5625 0
0.3125 0.5625 0
0.3125 0.5 0
0.34375 0.5 0
0.3125 0.53125 0
0.34375 0.53125 0
0.34375 0.5 0
0.375 0.5 0
0.34375 0.53125 0
0.375 0.53125 0
0.3125 0.53125 0
0.34375 0.53125 0
0.3125 0.5625 0
0.34375 0.5625 0
0.34375 0.53125 0
0.375 0.53125 0
0.34375 0.5625 0
0.375 0.5625 0
0.25 0.5625 0
0.28125 0.5625 0
0.25 0.59375 0
0.28125 0.59375 0
0.28125 0.5625 0
0.3125 0.5625 0
0.28125 0.59375 0
0.3125 0.59375 0
0.25 0.59375 0
0.28125 0.59375 0
0.25 0.625 0
0.28125 0.625 0
0.28125 0.59375 0
0.3125 0.59375 0
0.28125 0.625 0
0.3125 0.625 0
0.3125 0.5625 0
0.34375 0.5625 0
0.3125 0.59375 0
0.34375 0.59375 0
0.34375 0.5625 0
0.375 0.5625 0
0.34375 0.59375 0
0.375 0.59375 0
0.3125 0.59375 0
0.34375 0.59375 0
0.3125 0.625 0
0.34375 0.625 0
0.34375 0.59375 0
0.375 0.59375 0
0.34375 0.625 0
0.375 0.625 0
0.375 0.5 0
0.40625 0.5 0
0.375 0.53125 0
0.40625 0.53125 0
0.40625 0.5 0
0.4375 0.5 0
0.40625 0.53125 0
0.4375 0.53125 0
0.375 0.53125 0
0.40625 0.53125 0
0.375 0.5625 0
0.40625 0.5625 0
0.40625 0.53125 0
0.4375 0.53125 0
0.40625 0.5625 0
0.4375 0.5625 0
0.4375 0.5 0
0.46875 0.5 0
0.4375 0.53125 0
0.46875 0.53125 0
0.46875 0.5 0
0.5 0.5 0
0.46875 0.53125 0
0.5 0.53125 0
0.4375 0.53125 0
0.46875 0.53125 0
0.4375 0.5625 0
0.46875 0.5625 0
0.46875 0.53125 0
0.5 0.53125 0
0.46875 0.5625 0
0.5 0.5625 0
0.375 0.5625 0
0.40625 0.5625 0
0.375 0.59375 0
0.40625 0.59375 0
0.40625 0.5625 0
0.4375 0.5625 0
0.40625 0.59375 0
0.4375 0.59375 0
0.375 0.59375 0
0.40625 0.59375 0
0.375 0.625 0
0.40625 0.625 0
0.40625 0.59375 0
0.4375 0.59375 0
0.40625 0.625 0
0.4375 0.625 0
0.4375 0.5625 0
0.46875 0.5625 0
0.4375 0.59375 0
0.46875 0.59375 0
0.46875 0.5625 0
0.5 0.5625 0
0.46875 0.59375 0
0.5 0.59375 0
0.4375 0.59375 0
0.46875 0.59375 0
0.4375 0.625 0
0.46875 0.625 0
0.46875 0.59375 0
0.5 0.59375 0
0.46875 0.625 0
0.5 0.625 0
0.25 0.625 0
0.28125 0.625 0
0.25 0.65625 0
0.28125 0.65625 0
0.28125 0.625 0
0.3125 0.625 0
0.28125 0.65625 0
0.3125 0.65625 0
0.25 0.65625 0
0.28125 0.65625 0
0.25 0.6875 0
0.28125 0.6875 0
0.28125 0.65625 0
0.3125 0.65625 0
0.28125 0.6875 0
0.3125 0.6875 0
0.3125 0.625 0
0.34375 0.625 0
0.3125 0.65625 0
0.34375 0.65625 0
0.34375 0.625 0
0.375 0.625 0
0.34375 0.65625 0
0.375 0.65625 0
0.3125 0.65625 0
0.34375 0.65625 0
0.3125 0.6875 0
0.34375 0.6875 0
0.34375 0.65625 0
0.375 0.65625 0
0.34375 0.6875 0
0.375 0.6875 0
0.25 0.6875 0
0.28125 0.6875 0
0.25 0.71875 0
0.28125 0.71875 0
0.28125 0.6875 0
0.3125 0.6875 0
0.28125 0.71875 0
0.3125 0.71875 0
0.25 0.71875 0
0.28125 0.71875 0
0.25 0.75 0
0.28125 0.75 0
0.28125 0.71875 0
0.3125 0.71875 0
0.28125 0.75 0
0.3125 0.75 0
0.3125 0.6875 0
0.34375 0.6875 0
0.3125 0.71875 0
0.34375 0.71875 0
0.34375 0.6875 0
0.375 0.6875 0
0.34375 0.71875 0
0.375 0.71875 0
0.3125 0.71875 0
0.34375 0.71875 0
0.3125 0.75 0
0.34375 0.75 0
0.34375 0.71875 0
0.375 0.71875 0
0.34375 0.75 0
0.375 0.75 0
0.375 0.625 0
0.40625 0.625 0
0.375 0.65625 0
0.40625 0.65625 0
0.40625 0.625 0
0.4375 0.625 0
0.40625 0.65625 0
0.4375 0.65625 0
0.375 0.65625 0
0.40625 0.65625 0
0.375 0.6875 0
0.40625 0.6875 0
0.40625 0.65625 0
0.4375 0.65625 0
0.40625 0.6875 0
0.4375 0.6875 0
0.4375 0.625 0
0.46875 0.625 0
0.4375 0.65625 0
0.46875 0.65625 0
0.46875 0.625 0
0.5 0.625 0
0.46875 0.65625 0
0.5 0.65625 0
0.4375 0.65625 0
0.46875 0.65625 0
0.4375 0.6875 0
0.46875 0.6875 0
0.46875 0.65625 0
0.5 0.65625 0
0.46875 0.6875 0
0.5 0.6875 0
0.375 0.6875 0
0.40625 0.6875 0
0.375 0.71875 0
0.40625 0.71875 0
0.40625 0.6875 0
0.4375 0.6875 0
0.40625 0.71875 0
0.4375 0.71875 0
0.375 0.71875 0
0.40625 0.71875 0
0.375 0.75 0
0.40625 0.75 0
0.40625 0.71875 0
0.4375 0.71875 0
0.40625 0.75 0
0.4375 0.75 0
0.4375 0.6875 0
0.46875 0.6875 0
0.4375 0.71875 0
0.46875 0.71875 0
0.46875 0.6875 0
0.5 0.6875 0
0.46875 0.71875 0
0.5 0.71875 0
0.4375 0.71875 0
0.46875 0.71875 0
0.4375 0.75 0
0.46875 0.75 0
0.46875 0.71875 0
0.5 0.71875 0
0.46875 0.75 0
0.5 0.75 0
0 0.75 0
0.03125 0.75 0
0 0.78125 0
0.03125 0.78125 0
0.03125 0.75 0
0.0625 0.75 0
0.03125 0.78125 0
0.0625 0.78125 0
0 0.78125 0
0.03125 0.78125 0
0 0.8125 0
0.03125 0.8125 0
0.03125 0.78125 0
0.0625 0.78125 0
0.03125 0.8125 0
0.0625 0.8125 0
0.0625 0.75 0
0.09375 0.75 0
0.0625 0.78125 0
0.09375 0.78125 0
0.09375 0.75 0
0.125 0.75 0
0.09375 0.78125 0
0.125 0.78125 0
0.0625 0.78125 0
0.09375 0.78125 0
0.0625 0.8125 0
0.09375 0.8125 0
0.09375 0.78125 0
0.125 0.78125 0
0.09375 0.8125 0
0.125 0.8125 0
0 0.8125 0
0.03125 0.8125 0
0 0.84375 0
0.03125 0.84375 0
0.03125 0.8125 0
0.0625 0.8125 0
0.03125 0.84375 0
0.0625 0.84375 0
0 0.84375 0
0.03125 0.84375 0
0 0.875 0
0.03125 0.875 0
0.03125 0.84375 0
0.0625 0.84375 0
0.03125 0.875 0
0.0625 0.875 0
0.0625 0.8125 0
0.09375 0.8125 0
0.0625 0.84375 0
0.09375 0.84375 0
0.09375 0.8125 0
0.125 0.8125 0
0.09375 0.84375 0
0.125 0.84375 0
0.0625 0.84375 0
0.09375 0.84375 0
0.0625 0.875 0
0.09375 0.875 0
0.09375 0.84375 0
0.125 0.84375 0
0.09375 0.875 0
0.125 0.875 0
0.125 0.75 0
0.15625 0.75 0
0.125 0.78125 0
0.15625 0.78125 0
0.15625 0.75 0
0.1875 0.75 0
0.15625 0.78125 0
0.1875 0.78125 0
0.125 0.78125 0
0.15625 0.78125 0
0.125 0.8125 0
0.15625 0.8125 0
0.15625 0.78125 0
0.1875 0.78125 0
0.15625 0.8125 0
0.1875 0.8125 0
0.1875 0.75 0
0.21875 0.75 0
0.1875 0.78125 0
0.21875 0.78125 0
0.21875 0.75 0
0.25 0.75 0
0.21875 0.78125 0
0.25 0.78125 0
0.1875 0.78125 0
0.21875 0.78125 0
0.1875 0.8125 0
0.21875 0.8125 0
0.21875 0.78125 0
0.25 0.78125 0
0.21875 0.8125 0
0.25 0.8125 0
0.125 0.8125 0
0.15625 0.8125 0
0.125 0.84375 0
0.15625 0.84375 0
0.15625 0.8125 0
[...]
POINT_DATA 4096
SCALARS x_dis double 1
LOOKUP_TABLE default
7.44655e-15 8.11832e-15 -3.23699e-14 -2.6265e-14 8.11832e-15 9.01711e-15 -2.6265e-14 -3.13727e-14 -3.23699e-14 -2.6265e-14 8.20525e-14 8.95551e-14 -2.6265e-14 -3.13727e-14 8.95551e-14 1.0651e-13 9.01711e-15 8.32372e-15 -3.13727e-14 -2.84725e-14 8.32372e-15 8.75821e-15 -2.84725e-14 -3.01445e-14 -3.13727e-14 -2.84725e-14 1.0651e-13 9.48774e-14 -2.84725e-14 -3.01445e-14 9.48774e-14 1.01241e-13 8.20525e-14 8.95551e-14 -3.65335e-13 -2.61914e-13 8.95551e-14 1.0651e-13 -2.61914e-13 -3.50713e-13 -3.65335e-13 -2.61914e-13 7.35734e-13 8.01264e-13 -2.61914e-13 -3.50713e-13 8.01264e-13 1.10057e-12 1.0651e-13 9.48774e-14 -3.50713e-13 -3.03332e-13 9.48774e-14 1.01241e-13 -3.03332e-13 -3.27538e-13 -3.50713e-13 -3.03332e-13 1.10057e-12 9.15805e-13 -3.03332e-13 -3.27538e-13 9.15805e-13 1.00512e-12 8.75821e-15 8.52457e-15 -3.01445e-14 -2.93016e-14 8.52457e-15 8.6357e-15 -2.93016e-14 -2.96929e-14 -3.01445e-14 -2.93016e-14 1.01241e-13 9.81622e-14 -2.93016e-14 -2.96929e-14 9.81622e-14 9.94972e-14 8.6357e-15 8.58787e-15 -2.96929e-14 -2.95281e-14 8.58787e-15 8.6071e-15 -2.95281e-14 -2.95932e-14 -2.96929e-14 -2.95281e-14 9.94972e-14 9.89639e-14 -2.95281e-14 -2.95932e-14 9.89639e-14 9.91639e-14 1.01241e-13 9.81622e-14 -3.27538e-13 -3.16574e-13 9.81622e-14 9.94972e-14 -3.16574e-13 -3.212e-13 -3.27538e-13 -3.16574e-13 1.00512e-12 9.66537e-13 -3.16574e-13 -3.212e-13 9.66537e-13 9.81567e-13 9.94972e-14 9.89639e-14 -3.212e-13 -3.19399e-13 9.89639e-14 9.91639e-14 -3.19399e-13 -3.20062e-13 -3.212e-13 -3.19399e-13 9.81567e-13 9.76051e-13 -3.19399e-13 -3.20062e-13 9.76051e-13 9.77963e-13 7.35734e-13 8.01264e-13 -3.47442e-12 -1.72168e-12 8.01264e-13 1.10057e-12 -1.72168e-12 -3.19836e-12 -3.47442e-12 -1.72168e-12 2.82913e-12 3.01742e-12 -1.72168e-12 -3.19836e-12 3.01742e-12 8.01505e-12 1.10057e-12 9.15805e-13 -3.19836e-12 -2.46704e-12 9.15805e-13 1.00512e-12 -2.46704e-12 -2.80062e-12 -3.19836e-12 -2.46704e-12 8.01505e-12 5.23102e-12 -2.46704e-12 -2.80062e-12 5.23102e-12 6.42537e-12 2.82913e-12 3.01742e-12 -1.94112e-11 1.07496e-11 3.01742e-12 8.01505e-12 1.07496e-11 -1.26541e-11 -1.94112e-11 1.07496e-11 -9.94856e-11 -1.00068e-10 1.07496e-11 -1.26541e-11 -1.00068e-10 -2.48046e-11 8.01505e-12 5.23102e-12 -1.26541e-11 -2.31961e-12 5.23102e-12 6.42537e-12 -2.31961e-12 -6.55402e-12 -1.26541e-11 -2.31961e-12 -2.48046e-11 -6.50548e-11 -2.31961e-12 -6.55402e-12 -6.50548e-11 -4.88228e-11 1.00512e-12 9.66537e-13 -2.80062e-12 -2.66588e-12 9.66537e-13 9.81567e-13 -2.66588e-12 -2.71701e-12 -2.80062e-12 -2.66588e-12 6.42537e-12 5.9673e-12 -2.66588e-12 -2.71701e-12 5.9673e-12 6.12728e-12 9.81567e-13 9.76051e-13 -2.71701e-12 -2.69889e-12 9.76051e-13 9.77963e-13 -2.69889e-12 -2.70502e-12 -2.71701e-12 -2.69889e-12 6.12728e-12 6.07396e-12 -2.69889e-12 -2.70502e-12 6.07396e-12 6.09077e-12 6.42537e-12 5.9673e-12 -6.55402e-12 -5.03417e-12 5.9673e-12 6.12728e-12 -5.03417e-12 -5.55152e-12 -6.55402e-12 -5.03417e-12 -4.88228e-11 -5.47374e-11 -5.03417e-12 -5.55152e-12 -5.47374e-11 -5.27773e-11 6.12728e-12 6.07396e-12 -5.55152e-12 -5.38793e-12 6.07396e-12 6.09077e-12 -5.38793e-12 -5.43758e-12 -5.55152e-12 -5.38793e-12 -5.27773e-11 -5.33843e-11 -5.38793e-12 -5.43758e-12 -5.33843e-11 -5.32066e-11 8.6071e-15 8.59981e-15 -2.95932e-14 -2.95689e-14 8.59981e-15 8.60247e-15 -2.95689e-14 -2.95776e-14 -2.95932e-14 -2.95689e-14 9.91639e-14 9.90929e-14 -2.95689e-14 -2.95776e-14 9.90929e-14 9.91169e-14 8.60247e-15 8.60145e-15 -2.95776e-14 -2.95747e-14 8.60145e-15 8.60202e-15 -2.95747e-14 -2.95752e-14 -2.95776e-14 -2.95747e-14 9.91169e-14 9.91091e-14 -2.95747e-14 -2.95752e-14 9.91091e-14 9.91115e-14 9.91639e-14 9.90929e-14 -3.20062e-13 -3.1983e-13 9.90929e-14 9.91169e-14 -3.1983e-13 -3.19907e-13 -3.20062e-13 -3.1983e-13 9.77963e-13 9.77333e-13 -3.1983e-13 -3.19907e-13 9.77333e-13 9.77532e-13 9.91169e-14 9.91091e-14 -3.19907e-13 -3.19882e-13 9.91091e-14 9.91115e-14 -3.19882e-13 -3.1989e-13 -3.19907e-13 -3.19882e-13 9.77532e-13 9.77472e-13 -3.19882e-13 -3.1989e-13 9.77472e-13 9.77489e-13 8.60202e-15 8.60208e-15 -2.95752e-14 -2.95765e-14 8.60208e-15 8.59434e-15 -2.95765e-14 -2.95728e-14 -2.95752e-14 -2.95765e-14 9.91115e-14 9.9111e-14 -2.95765e-14 -2.95728e-14 9.9111e-14 9.91105e-14 8.59434e-15 8.66502e-15 -2.95728e-14 -2.95693e-14 8.66502e-15 8.16453e-15 -2.95693e-14 -2.9701e-14 -2.95728e-14 -2.95693e-14 9.91105e-14 9.9114e-14 -2.95693e-14 -2.9701e-14 9.9114e-14 9.9088e-14 9.91115e-14 9.9111e-14 -3.1989e-13 -3.19888e-13 9.9111e-14 9.91105e-14 -3.19888e-13 -3.19889e-13 -3.1989e-13 -3.19888e-13 9.77489e-13 9.77484e-13 -3.19888e-13 -3.19889e-13 9.77484e-13 9.77486e-13 9.91105e-14 9.9114e-14 -3.19889e-13 -3.19887e-13 9.9114e-14 9.9088e-14 -3.19887e-13 -3.1989e-13 -3.19889e-13 -3.19887e-13 9.77486e-13 9.77485e-13 -3.19887e-13 -3.1989e-13 9.77485e-13 9.77483e-13 9.77963e-13 9.77333e-13 -2.70502e-12 -2.70304e-12 9.77333e-13 9.77532e-13 -2.70304e-12 -2.70365e-12 -2.70502e-12 -2.70304e-12 6.09077e-12 6.08573e-12 -2.70304e-12 -2.70365e-12 6.08573e-12 6.08718e-12 9.77532e-13 9.77472e-13 -2.70365e-12 -2.70347e-12 9.77472e-13 9.77489e-13 -2.70347e-12 -2.70352e-12 -2.70365e-12 -2.70347e-12 6.08718e-12 6.08678e-12 -2.70347e-12 -2.70352e-12 6.08678e-12 6.08688e-12 6.09077e-12 6.08573e-12 -5.43758e-12 -5.42312e-12 6.08573e-12 6.08718e-12 -5.42312e-12 -5.42716e-12 -5.43758e-12 -5.42312e-12 -5.32066e-11 -5.32559e-11 -5.42312e-12 -5.42716e-12 -5.32559e-11 -5.32429e-11 6.08718e-12 6.08678e-12 -5.42716e-12 -5.42608e-12 6.08678e-12 6.08688e-12 -5.42608e-12 -5.42636e-12 -5.42716e-12 -5.42608e-12 -5.32429e-11 -5.32462e-11 -5.42608e-12 -5.42636e-12 -5.32462e-11 -5.32454e-11 9.77489e-13 9.77484e-13 -2.70352e-12 -2.70351e-12 9.77484e-13 9.77486e-13 -2.70351e-12 -2.70351e-12 -2.70352e-12 -2.70351e-12 6.08688e-12 6.08686e-12 -2.70351e-12 -2.70351e-12 6.08686e-12 6.08686e-12 9.77486e-13 9.77485e-13 -2.70351e-12 -2.70351e-12 9.77485e-13 9.77483e-13 -2.70351e-12 -2.70351e-12 -2.70351e-12 -2.70351e-12 6.08686e-12 6.08686e-12 -2.70351e-12 -2.70351e-12 6.08686e-12 6.08686e-12 6.08688e-12 6.08686e-12 -5.42636e-12 -5.42629e-12 6.08686e-12 6.08686e-12 -5.42629e-12 -5.42631e-12 -5.42636e-12 -5.42629e-12 -5.32454e-11 -5.32456e-11 -5.42629e-12 -5.42631e-12 -5.32456e-11 -5.32456e-11 6.08686e-12 6.08686e-12 -5.42631e-12 -5.4263e-12 6.08686e-12 6.08686e-12 -5.4263e-12 -5.4263e-12 -5.42631e-12 -5.4263e-12 -5.32456e-11 -5.32456e-11 -5.4263e-12 -5.4263e-12 -5.32456e-11 -5.32456e-11 -9.94856e-11 -1.00068e-10 2.26228e-10 7.54986e-10 -1.00068e-10 -2.48046e-11 7.54986e-10 4.13431e-10 2.26228e-10 7.54986e-10 -3.8199e-09 -3.84394e-09 7.54986e-10 4.13431e-10 -3.84394e-09 -2.84184e-09 -2.48046e-11 -6.50548e-11 4.13431e-10 5.45869e-10 -6.50548e-11 -4.88228e-11 5.45869e-10 5.0014e-10 4.13431e-10 5.45869e-10 -2.84184e-09 -3.34034e-09 5.45869e-10 5.0014e-10 -3.34034e-09 -3.15961e-09 -3.8199e-09 -3.84394e-09 1.17319e-08 2.09105e-08 -3.84394e-09 -2.84184e-09 2.09105e-08 1.63232e-08 1.17319e-08 2.09105e-08 -9.49066e-08 -9.5319e-08 2.09105e-08 1.63232e-08 -9.5319e-08 -8.36513e-08 -2.84184e-09 -3.34034e-09 1.63232e-08 1.78141e-08 -3.34034e-09 -3.15961e-09 1.78141e-08 1.7392e-08 1.63232e-08 1.78141e-08 -8.36513e-08 -8.90189e-08 1.78141e-08 1.7392e-08 -8.90189e-08 -8.72555e-08 -4.88228e-11 -5.47374e-11 5.0014e-10 5.14278e-10 -5.47374e-11 -5.27773e-11 5.14278e-10 5.10139e-10 5.0014e-10 5.14278e-10 -3.15961e-09 -3.21683e-09 5.14278e-10 5.10139e-10 -3.21683e-09 -3.20062e-09 -5.27773e-11 -5.33843e-11 5.10139e-10 5.11287e-10 -5.33843e-11 -5.32066e-11 5.11287e-10 5.10985e-10 5.10139e-10 5.11287e-10 -3.20062e-09 -3.20488e-09 5.11287e-10 5.10985e-10 -3.20488e-09 -3.20384e-09 -3.15961e-09 -3.21683e-09 1.7392e-08 1.74989e-08 -3.21683e-09 -3.20062e-09 1.74989e-08 1.74743e-08 1.7392e-08 1.74989e-08 -8.72555e-08 -8.77589e-08 1.74989e-08 1.74743e-08 -8.77589e-08 -8.76299e-08 -3.20062e-09 -3.20488e-09 1.74743e-08 1.74794e-08 -3.20488e-09 -3.20384e-09 1.74794e-08 1.74785e-08 1.74743e-08 1.74794e-08 -8.76299e-08 -8.766e-08 1.74794e-08 1.74785e-08 -8.766e-08 -8.76537e-08 -9.49066e-08 -9.5319e-08 3.10839e-07 4.66763e-07 -9.5319e-08 -8.36513e-08 4.66763e-07 4.12034e-07 3.10839e-07 4.66763e-07 -2.02746e-06 -2.03095e-06 4.66763e-07 4.12034e-07 -2.03095e-06 -1.92967e-06 -8.36513e-08 -8.90189e-08 4.12034e-07 4.26224e-07 -8.90189e-08 -8.72555e-08 4.26224e-07 4.23128e-07 4.12034e-07 4.26224e-07 -1.92967e-06 -1.97399e-06 4.26224e-07 4.23128e-07 -1.97399e-06 -1.95969e-06 -2.02746e-06 -2.03095e-06 6.8218e-06 9.43136e-06 -2.03095e-06 -1.92967e-06 9.43136e-06 8.92196e-06 6.8218e-06 9.43136e-06 -4e-05 -4e-05 9.43136e-06 8.92196e-06 -4e-05 -4e-05 -1.92967e-06 -1.97399e-06 8.92196e-06 9.01026e-06 -1.97399e-06 -1.95969e-06 9.01026e-06 8.99659e-06 8.92196e-06 9.01026e-06 -4e-05 -4e-05 9.01026e-06 8.99659e-06 -4e-05 -4e-05 -8.72555e-08 -8.77589e-08 4.23128e-07 4.23689e-07 -8.77589e-08 -8.76299e-08 4.23689e-07 4.23618e-07 4.23128e-07 4.23689e-07 -1.95969e-06 -1.96374e-06 4.23689e-07 4.23618e-07 -1.96374e-06 -1.96268e-06 -8.76299e-08 -8.766e-08 4.23618e-07 4.23617e-07 -8.766e-08 -8.76537e-08 4.23617e-07 4.23622e-07 4.23618e-07 4.23617e-07 -1.96268e-06 -1.96294e-06 4.23617e-07 4.23622e-07 -1.96294e-06 -1.96288e-06 -1.95969e-06 -1.96374e-06 8.99659e-06 8.99822e-06 -1.96374e-06 -1.96268e-06 8.99822e-06 8.99818e-06 8.99659e-06 8.99822e-06 -4e-05 -4e-05 8.99822e-06 8.99818e-06 -4e-05 -4e-05 -1.96268e-06 -1.96294e-06 8.99818e-06 8.99811e-06 -1.96294e-06 -1.96288e-06 8.99811e-06 8.99815e-06 8.99818e-06 8.99811e-06 -4e-05 -4e-05 8.99811e-06 8.99815e-06 -4e-05 -4e-05 -5.32066e-11 -5.32559e-11 5.10985e-10 5.1106e-10 -5.32559e-11 -5.32429e-11 5.1106e-10 5.11043e-10 5.10985e-10 5.1106e-10 -3.20384e-09 -3.20407e-09 5.1106e-10 5.11043e-10 -3.20407e-09 -3.20403e-09 -5.32429e-11 -5.32462e-11 5.11043e-10 5.11046e-10 -5.32462e-11 -5.32454e-11 5.11046e-10 5.11046e-10 5.11043e-10 5.11046e-10 -3.20403e-09 -3.20403e-09 5.11046e-10 5.11046e-10 -3.20403e-09 -3.20403e-09 -3.20384e-09 -3.20407e-09 1.74785e-08 1.74786e-08 -3.20407e-09 -3.20403e-09 1.74786e-08 1.74787e-08 1.74785e-08 1.74786e-08 -8.76537e-08 -8.76548e-08 1.74786e-08 1.74787e-08 -8.76548e-08 -8.76547e-08 -3.20403e-09 -3.20403e-09 1.74787e-08 1.74786e-08 -3.20403e-09 -3.20403e-09 1.74786e-08 1.74786e-08 1.74787e-08 1.74786e-08 -8.76547e-08 -8.76547e-08 1.74786e-08 1.74786e-08 -8.76547e-08 -8.76547e-08 -5.32454e-11 -5.32456e-11 5.11046e-10 5.11046e-10 -5.32456e-11 -5.32456e-11 5.11046e-10 5.11046e-10 5.11046e-10 5.11046e-10 -3.20403e-09 -3.20403e-09 5.11046e-10 5.11046e-10 -3.20403e-09 -3.20403e-09 -5.32456e-11 -5.32456e-11 5.11046e-10 5.11046e-10 -5.32456e-11 -5.32456e-11 5.11046e-10 5.11046e-10 5.11046e-10 5.11046e-10 -3.20403e-09 -3.20403e-09 5.11046e-10 5.11046e-10 -3.20403e-09 -3.20403e-09 -3.20403e-09 -3.20403e-09 1.74786e-08 1.74786e-08 -3.20403e-09 -3.20403e-09 1.74786e-08 1.74786e-08 1.74786e-08 1.74786e-08 -8.76547e-08 -8.76547e-08 1.74786e-08 1.74786e-08 -8.76547e-08 -8.76547e-08 -3.20403e-09 -3.20403e-09 1.74786e-08 1.74786e-08 -3.20403e-09 -3.20403e-09 1.74786e-08 1.74786e-08 1.74786e-08 1.74786e-08 -8.76547e-08 -8.76547e-08 1.74786e-08 1.74786e-08 -8.76547e-08 -8.76547e-08 -8.76537e-08 -8.76548e-08 4.23622e-07 4.23619e-07 -8.76548e-08 -8.76547e-08 4.23619e-07 4.2362e-07 4.23622e-07 4.23619e-07 -1.96288e-06 -1.96289e-06 4.23619e-07 4.2362e-07 -1.96289e-06 -1.96289e-06 -8.76547e-08 -8.76547e-08 4.2362e-07 4.2362e-07 -8.76547e-08 -8.76547e-08 4.2362e-07 4.2362e-07 4.2362e-07 4.2362e-07 -1.96289e-06 -1.96289e-06 4.2362e-07 4.2362e-07 -1.96289e-06 -1.96289e-06 -1.96288e-06 -1.96289e-06 8.99815e-06 8.99814e-06 -1.96289e-06 -1.96289e-06 8.99814e-06 8.99814e-06 8.99815e-06 8.99814e-06 -4e-05 -4e-05 8.99814e-06 8.99814e-06 -4e-05 -4e-05 -1.96289e-06 -1.96289e-06 8.99814e-06 8.99814e-06 -1.96289e-06 -1.96289e-06 8.99814e-06 8.99814e-06 8.99814e-06 8.99814e-06 -4e-05 -4e-05 8.99814e-06 8.99814e-06 -4e-05 -4e-05 -8.76547e-08 -8.76547e-08 4.2362e-07 4.2362e-07 -8.76547e-08 -8.76547e-08 4.2362e-07 4.2362e-07 4.2362e-07 4.2362e-07 -1.96289e-06 -1.96289e-06 4.2362e-07 4.2362e-07 -1.96289e-06 -1.96289e-06 -8.76547e-08 -8.76547e-08 4.2362e-07 4.2362e-07 -8.76547e-08 -8.76547e-08 4.2362e-07 4.2362e-07 4.2362e-07 4.2362e-07 -1.96289e-06 -1.96289e-06 4.2362e-07 4.2362e-07 -1.96289e-06 -1.96289e-06 -1.96289e-06 -1.96289e-06 8.99814e-06 8.99814e-06 -1.96289e-06 -1.96289e-06 8.99814e-06 8.99814e-06 8.99814e-06 8.99814e-06 -4e-05 -4e-05 8.99814e-06 8.99814e-06 -4e-05 -4e-05 -1.96289e-06 -1.96289e-06 8.99814e-06 8.99814e-06 -1.96289e-06 -1.96289e-06 8.99814e-06 8.99814e-06 8.99814e-06 8.99814e-06 -4e-05 -4e-05 8.99814e-06 8.99814e-06 -4e-05 -4e-05 8.16453e-15 2.01548e-14 -2.9701e-14 -3.28027e-14 2.01548e-14 1.64043e-14 -3.28027e-14 -3.17876e-14 -2.9701e-14 -3.28027e-14 9.9088e-14 9.99799e-14 -3.28027e-14 -3.17876e-14 9.99799e-14 9.97604e-14 1.64043e-14 1.73986e-14 -3.17876e-14 -3.20796e-14 1.73986e-14 1.71272e-14 -3.20796e-14 -3.20018e-14 -3.17876e-14 -3.20796e-14 9.97604e-14 9.98093e-14 -3.20796e-14 -3.20018e-14 9.98093e-14 9.9797e-14 9.9088e-14 9.99799e-14 -3.1989e-13 -3.20134e-13 9.99799e-14 9.97604e-14 -3.20134e-13 -3.20068e-13 -3.1989e-13 -3.20134e-13 9.77483e-13 9.77551e-13 -3.20134e-13 -3.20068e-13 9.77551e-13 9.77536e-13 9.97604e-14 9.98093e-14 -3.20068e-13 -3.20082e-13 9.98093e-14 9.9797e-14 -3.20082e-13 -3.20078e-13 -3.20068e-13 -3.20082e-13 9.77536e-13 9.77539e-13 -3.20082e-13 -3.20078e-13 9.77539e-13 9.77535e-13 1.71272e-14 1.71947e-14 -3.20018e-14 -3.20214e-14 1.71947e-14 1.71775e-14 -3.20214e-14 -3.20154e-14 -3.20018e-14 -3.20214e-14 9.9797e-14 9.98011e-14 -3.20214e-14 -3.20154e-14 9.98011e-14 9.97964e-14 1.71775e-14 1.71834e-14 -3.20154e-14 -3.20204e-14 1.71834e-14 1.71777e-14 -3.20204e-14 -3.20104e-14 -3.20154e-14 -3.20204e-14 9.97964e-14 9.98075e-14 -3.20204e-14 -3.20104e-14 9.98075e-14 9.97794e-14 9.9797e-14 9.98011e-14 -3.20078e-13 -3.20082e-13 9.98011e-14 9.97964e-14 -3.20082e-13 -3.20071e-13 -3.20078e-13 -3.20082e-13 9.77535e-13 9.77548e-13 -3.20082e-13 -3.20071e-13 9.77548e-13 9.77509e-13 9.97964e-14 9.98075e-14 -3.20071e-13 -3.20103e-13 9.98075e-14 9.97794e-14 -3.20103e-13 -3.20016e-13 -3.20071e-13 -3.20103e-13 9.77509e-13 9.77619e-13 -3.20103e-13 -3.20016e-13 9.77619e-13 9.77318e-13 9.77483e-13 9.77551e-13 -2.70351e-12 -2.70353e-12 9.77551e-13 9.77536e-13 -2.70353e-12 -2.70352e-12 -2.70351e-12 -2.70353e-12 6.08686e-12 6.08687e-12 -2.70353e-12 -2.70352e-12 6.08687e-12 6.08686e-12 9.77536e-13 9.77539e-13 -2.70352e-12 -2.70353e-12 9.77539e-13 9.77535e-13 -2.70353e-12 -2.70352e-12 -2.70352e-12 -2.70353e-12 6.08686e-12 6.08687e-12 -2.70353e-12 -2.70352e-12 6.08687e-12 6.08684e-12 6.08686e-12 6.08687e-12 -5.4263e-12 -5.42631e-12 6.08687e-12 6.08686e-12 -5.42631e-12 -5.4263e-12 -5.4263e-12 -5.42631e-12 -5.32456e-11 -5.32456e-11 -5.42631e-12 -5.4263e-12 -5.32456e-11 -5.32456e-11 6.08686e-12 6.08687e-12 -5.4263e-12 -5.42632e-12 6.08687e-12 6.08684e-12 -5.42632e-12 -5.42624e-12 -5.4263e-12 -5.42632e-12 -5.32456e-11 -5.32455e-11 -5.42632e-12 -5.42624e-12 -5.32455e-11 -5.32457e-11 9.77535e-13 9.77548e-13 -2.70352e-12 -2.70355e-12 9.77548e-13 9.77509e-13 -2.70355e-12 -2.70345e-12 -2.70352e-12 -2.70355e-12 6.08684e-12 6.08695e-12 -2.70355e-12 -2.70345e-12 6.08695e-12 6.0866e-12 9.77509e-13 9.77619e-13 -2.70345e-12 -2.70376e-12 9.77619e-13 9.77318e-13 -2.70376e-12 -2.70286e-12 -2.70345e-12 -2.70376e-12 6.0866e-12 6.08767e-12 -2.70376e-12 -2.70286e-12 6.08767e-12 6.08452e-12 6.08684e-12 6.08695e-12 -5.42624e-12 -5.42651e-12 6.08695e-12 6.0866e-12 -5.42651e-12 -5.42563e-12 -5.42624e-12 -5.42651e-12 -5.32457e-11 -5.32451e-11 -5.42651e-12 -5.42563e-12 -5.32451e-11 -5.32473e-11 6.0866e-12 6.08767e-12 -5.42563e-12 -5.42845e-12 6.08767e-12 6.08452e-12 -5.42845e-12 -5.41971e-12 -5.42563e-12 -5.42845e-12 -5.32473e-11 -5.32399e-11 -5.42845e-12 -5.41971e-12 -5.32399e-11 -5.32639e-11 1.71777e-14 1.71889e-14 -3.20104e-14 -3.20333e-14 1.71889e-14 1.71656e-14 -3.20333e-14 -3.19835e-14 -3.20104e-14 -3.20333e-14 9.97794e-14 9.98474e-14 -3.20333e-14 -3.19835e-14 9.98474e-14 9.96932e-14 1.71656e-14 1.72095e-14 -3.19835e-14 -3.20815e-14 1.72095e-14 1.71425e-14 -3.20815e-14 -3.19165e-14 -3.19835e-14 -3.20815e-14 9.96932e-14 1.00013e-13 -3.20815e-14 -3.19165e-14 1.00013e-13 9.94417e-14 9.97794e-14 9.98474e-14 -3.20016e-13 -3.20238e-13 9.98474e-14 9.96932e-14 -3.20238e-13 -3.19708e-13 -3.20016e-13 -3.20238e-13 9.77318e-13 9.78103e-13 -3.20238e-13 -3.19708e-13 9.78103e-13 9.76174e-13 9.96932e-14 1.00013e-13 -3.19708e-13 -3.20866e-13 1.00013e-13 9.94417e-14 -3.20866e-13 -3.18692e-13 -3.19708e-13 -3.20866e-13 9.76174e-13 9.80535e-13 -3.20866e-13 -3.18692e-13 9.80535e-13 9.72016e-13 1.71425e-14 1.71856e-14 -3.19165e-14 -3.21081e-14 1.71856e-14 1.74283e-14 -3.21081e-14 -3.21665e-14 -3.19165e-14 -3.21081e-14 9.94417e-14 1.00109e-13 -3.21081e-14 -3.21665e-14 1.00109e-13 1.00825e-13 1.74283e-14 1.63928e-14 -3.21665e-14 -3.21792e-14 1.63928e-14 1.75747e-14 -3.21792e-14 -2.45824e-14 -3.21665e-14 -3.21792e-14 1.00825e-13 9.56545e-14 -3.21792e-14 -2.45824e-14 9.56545e-14 9.98508e-14 9.94417e-14 1.00109e-13 -3.18692e-13 -3.21564e-13 1.00109e-13 1.00825e-13 -3.21564e-13 -3.21315e-13 -3.18692e-13 -3.21564e-13 9.72016e-13 9.8359e-13 -3.21564e-13 -3.21315e-13 9.8359e-13 9.87166e-13 1.00825e-13 9.56545e-14 -3.21315e-13 -3.25408e-13 9.56545e-14 9.98508e-14 -3.25408e-13 -2.0488e-13 -3.21315e-13 -3.25408e-13 9.87166e-13 9.30575e-13 -3.25408e-13 -2.0488e-13 9.30575e-13 9.48448e-13 9.77318e-13 9.78103e-13 -2.70286e-12 -2.70532e-12 9.78103e-13 9.76174e-13 -2.70532e-12 -2.69896e-12 -2.70286e-12 -2.70532e-12 6.08452e-12 6.09338e-12 -2.70532e-12 -2.69896e-12 6.09338e-12 6.06984e-12 9.76174e-13 9.80535e-13 -2.69896e-12 -2.71406e-12 9.80535e-13 9.72016e-13 -2.71406e-12 -2.683e-12 -2.69896e-12 -2.71406e-12 6.06984e-12 6.12746e-12 -2.71406e-12 -2.683e-12 6.12746e-12 6.00491e-12 6.08452e-12 6.09338e-12 -5.41971e-12 -5.44564e-12 6.09338e-12 6.06984e-12 -5.44564e-12 -5.37306e-12 -5.41971e-12 -5.44564e-12 -5.32639e-11 -5.31886e-11 -5.44564e-12 -5.37306e-12 -5.31886e-11 -5.34134e-11 6.06984e-12 6.12746e-12 -5.37306e-12 -5.56011e-12 6.12746e-12 6.00491e-12 -5.56011e-12 -5.13711e-12 -5.37306e-12 -5.56011e-12 -5.34134e-11 -5.27911e-11 -5.56011e-12 -5.13711e-12 -5.27911e-11 -5.43134e-11 9.72016e-13 9.8359e-13 -2.683e-12 -2.73095e-12 9.8359e-13 9.87166e-13 -2.73095e-12 -2.6968e-12 -2.683e-12 -2.73095e-12 6.00491e-12 6.19686e-12 -2.73095e-12 -2.6968e-12 6.19686e-12 6.1307e-12 9.87166e-13 9.30575e-13 -2.6968e-12 -2.85075e-12 9.30575e-13 9.48448e-13 -2.85075e-12 -8.38484e-13 -2.6968e-12 -2.85075e-12 6.1307e-12 5.64101e-12 -2.85075e-12 -8.38484e-13 5.64101e-12 5.22868e-12 6.00491e-12 6.19686e-12 -5.13711e-12 -5.90932e-12 6.19686e-12 6.1307e-12 -5.90932e-12 -4.82198e-12 -5.13711e-12 -5.90932e-12 -5.43134e-11 -5.13738e-11 -5.90932e-12 -4.82198e-12 -5.13738e-11 -5.44042e-11 6.1307e-12 5.64101e-12 -4.82198e-12 -9.39149e-12 5.64101e-12 5.22868e-12 -9.39149e-12 2.48289e-11 -4.82198e-12 -9.39149e-12 -5.44042e-11 -5.50916e-11 -9.39149e-12 2.48289e-11 -5.50916e-11 -6.58507e-11 -5.32456e-11 -5.32456e-11 5.11046e-10 5.11046e-10 -5.32456e-11 -5.32456e-11 5.11046e-10 5.11046e-10 5.11046e-10 5.11046e-10 -3.20403e-09 -3.20403e-09 5.11046e-10 5.11046e-10 -3.20403e-09 -3.20403e-09 -5.32456e-11 -5.32455e-11 5.11046e-10 5.11046e-10 -5.32455e-11 -5.32457e-11 5.11046e-10 5.11046e-10 5.11046e-10 5.11046e-10 -3.20403e-09 -3.20403e-09 5.11046e-10 5.11046e-10 -3.20403e-09 -3.20403e-09 -3.20403e-09 -3.20403e-09 1.74786e-08 1.74786e-08 -3.20403e-09 -3.20403e-09 1.74786e-08 1.74786e-08 1.74786e-08 1.74786e-08 -8.76547e-08 -8.76547e-08 1.74786e-08 1.74786e-08 -8.76547e-08 -8.76547e-08 -3.20403e-09 -3.20403e-09 1.74786e-08 1.74786e-08 -3.20403e-09 -3.20403e-09 1.74786e-08 1.74786e-08 1.74786e-08 1.74786e-08 -8.76547e-08 -8.76547e-08 1.74786e-08 1.74786e-08 -8.76547e-08 -8.76547e-08 -5.32457e-11 -5.32451e-11 5.11046e-10 5.11044e-10 -5.32451e-11 -5.32473e-11 5.11044e-10 5.11051e-10 5.11046e-10 5.11044e-10 -3.20403e-09 -3.20403e-09 5.11044e-10 5.11051e-10 -3.20403e-09 -3.20405e-09 -5.32473e-11 -5.32399e