# vtk DataFile Version 3.0
#This file was generated by the deal.II library on 2022/11/2 at 18:40:28
ASCII
DATASET UNSTRUCTURED_GRID

POINTS 4096 double
0 0.5 0
0.03125 0.5 0
0 0.53125 0
0.03125 0.53125 0
0.03125 0.5 0
0.0625 0.5 0
0.03125 0.53125 0
0.0625 0.53125 0
0 0.53125 0
0.03125 0.53125 0
0 0.5625 0
0.03125 0.5625 0
0.03125 0.53125 0
0.0625 0.53125 0
0.03125 0.5625 0
0.0625 0.5625 0
0.0625 0.5 0
0.09375 0.5 0
0.0625 0.53125 0
0.09375 0.53125 0
0.09375 0.5 0
0.125 0.5 0
0.09375 0.53125 0
0.125 0.53125 0
0.0625 0.53125 0
0.09375 0.53125 0
0.0625 0.5625 0
0.09375 0.5625 0
0.09375 0.53125 0
0.125 0.53125 0
0.09375 0.5625 0
0.125 0.5625 0
0 0.5625 0
0.03125 0.5625 0
0 0.59375 0
0.03125 0.59375 0
0.03125 0.5625 0
0.0625 0.5625 0
0.03125 0.59375 0
0.0625 0.59375 0
0 0.59375 0
0.03125 0.59375 0
0 0.625 0
0.03125 0.625 0
0.03125 0.59375 0
0.0625 0.59375 0
0.03125 0.625 0
0.0625 0.625 0
0.0625 0.5625 0
0.09375 0.5625 0
0.0625 0.59375 0
0.09375 0.59375 0
0.09375 0.5625 0
0.125 0.5625 0
0.09375 0.59375 0
0.125 0.59375 0
0.0625 0.59375 0
0.09375 0.59375 0
0.0625 0.625 0
0.09375 0.625 0
0.09375 0.59375 0
0.125 0.59375 0
0.09375 0.625 0
0.125 0.625 0
0.125 0.5 0
0.15625 0.5 0
0.125 0.53125 0
0.15625 0.53125 0
0.15625 0.5 0
0.1875 0.5 0
0.15625 0.53125 0
0.1875 0.53125 0
0.125 0.53125 0
0.15625 0.53125 0
0.125 0.5625 0
0.15625 0.5625 0
0.15625 0.53125 0
0.1875 0.53125 0
0.15625 0.5625 0
0.1875 0.5625 0
0.1875 0.5 0
0.21875 0.5 0
0.1875 0.53125 0
0.21875 0.53125 0
0.21875 0.5 0
0.25 0.5 0
0.21875 0.53125 0
0.25 0.53125 0
0.1875 0.53125 0
0.21875 0.53125 0
0.1875 0.5625 0
0.21875 0.5625 0
0.21875 0.53125 0
0.25 0.53125 0
0.21875 0.5625 0
0.25 0.5625 0
0.125 0.5625 0
0.15625 0.5625 0
0.125 0.59375 0
0.15625 0.59375 0
0.15625 0.5625 0
0.1875 0.5625 0
0.15625 0.59375 0
0.1875 0.59375 0
0.125 0.59375 0
0.15625 0.59375 0
0.125 0.625 0
0.15625 0.625 0
0.15625 0.59375 0
0.1875 0.59375 0
0.15625 0.625 0
0.1875 0.625 0
0.1875 0.5625 0
0.21875 0.5625 0
0.1875 0.59375 0
0.21875 0.59375 0
0.21875 0.5625 0
0.25 0.5625 0
0.21875 0.59375 0
0.25 0.59375 0
0.1875 0.59375 0
0.21875 0.59375 0
0.1875 0.625 0
0.21875 0.625 0
0.21875 0.59375 0
0.25 0.59375 0
0.21875 0.625 0
0.25 0.625 0
0 0.625 0
0.03125 0.625 0
0 0.65625 0
0.03125 0.65625 0
0.03125 0.625 0
0.0625 0.625 0
0.03125 0.65625 0
0.0625 0.65625 0
0 0.65625 0
0.03125 0.65625 0
0 0.6875 0
0.03125 0.6875 0
0.03125 0.65625 0
0.0625 0.65625 0
0.03125 0.6875 0
0.0625 0.6875 0
0.0625 0.625 0
0.09375 0.625 0
0.0625 0.65625 0
0.09375 0.65625 0
0.09375 0.625 0
0.125 0.625 0
0.09375 0.65625 0
0.125 0.65625 0
0.0625 0.65625 0
0.09375 0.65625 0
0.0625 0.6875 0
0.09375 0.6875 0
0.09375 0.65625 0
0.125 0.65625 0
0.09375 0.6875 0
0.125 0.6875 0
0 0.6875 0
0.03125 0.6875 0
0 0.71875 0
0.03125 0.71875 0
0.03125 0.6875 0
0.0625 0.6875 0
0.03125 0.71875 0
0.0625 0.71875 0
0 0.71875 0
0.03125 0.71875 0
0 0.75 0
0.03125 0.75 0
0.03125 0.71875 0
0.0625 0.71875 0
0.03125 0.75 0
0.0625 0.75 0
0.0625 0.6875 0
0.09375 0.6875 0
0.0625 0.71875 0
0.09375 0.71875 0
0.09375 0.6875 0
0.125 0.6875 0
0.09375 0.71875 0
0.125 0.71875 0
0.0625 0.71875 0
0.09375 0.71875 0
0.0625 0.75 0
0.09375 0.75 0
0.09375 0.71875 0
0.125 0.71875 0
0.09375 0.75 0
0.125 0.75 0
0.125 0.625 0
0.15625 0.625 0
0.125 0.65625 0
0.15625 0.65625 0
0.15625 0.625 0
0.1875 0.625 0
0.15625 0.65625 0
0.1875 0.65625 0
0.125 0.65625 0
0.15625 0.65625 0
0.125 0.6875 0
0.15625 0.6875 0
0.15625 0.65625 0
0.1875 0.65625 0
0.15625 0.6875 0
0.1875 0.6875 0
0.1875 0.625 0
0.21875 0.625 0
0.1875 0.65625 0
0.21875 0.65625 0
0.21875 0.625 0
0.25 0.625 0
0.21875 0.65625 0
0.25 0.65625 0
0.1875 0.65625 0
0.21875 0.65625 0
0.1875 0.6875 0
0.21875 0.6875 0
0.21875 0.65625 0
0.25 0.65625 0
0.21875 0.6875 0
0.25 0.6875 0
0.125 0.6875 0
0.15625 0.6875 0
0.125 0.71875 0
0.15625 0.71875 0
0.15625 0.6875 0
0.1875 0.6875 0
0.15625 0.71875 0
0.1875 0.71875 0
0.125 0.71875 0
0.15625 0.71875 0
0.125 0.75 0
0.15625 0.75 0
0.15625 0.71875 0
0.1875 0.71875 0
0.15625 0.75 0
0.1875 0.75 0
0.1875 0.6875 0
0.21875 0.6875 0
0.1875 0.71875 0
0.21875 0.71875 0
0.21875 0.6875 0
0.25 0.6875 0
0.21875 0.71875 0
0.25 0.71875 0
0.1875 0.71875 0
0.21875 0.71875 0
0.1875 0.75 0
0.21875 0.75 0
0.21875 0.71875 0
0.25 0.71875 0
0.21875 0.75 0
0.25 0.75 0
0.25 0.5 0
0.28125 0.5 0
0.25 0.53125 0
0.28125 0.53125 0
0.28125 0.5 0
0.3125 0.5 0
0.28125 0.53125 0
0.3125 0.53125 0
0.25 0.53125 0
0.28125 0.53125 0
0.25 0.5625 0
0.28125 0.5625 0
0.28125 0.53125 0
0.3125 0.53125 0
0.28125 0.5625 0
0.3125 0.5625 0
0.3125 0.5 0
0.34375 0.5 0
0.3125 0.53125 0
0.34375 0.53125 0
0.34375 0.5 0
0.375 0.5 0
0.34375 0.53125 0
0.375 0.53125 0
0.3125 0.53125 0
0.34375 0.53125 0
0.3125 0.5625 0
0.34375 0.5625 0
0.34375 0.53125 0
0.375 0.53125 0
0.34375 0.5625 0
0.375 0.5625 0
0.25 0.5625 0
0.28125 0.5625 0
0.25 0.59375 0
0.28125 0.59375 0
0.28125 0.5625 0
0.3125 0.5625 0
0.28125 0.59375 0
0.3125 0.59375 0
0.25 0.59375 0
0.28125 0.59375 0
0.25 0.625 0
0.28125 0.625 0
0.28125 0.59375 0
0.3125 0.59375 0
0.28125 0.625 0
0.3125 0.625 0
0.3125 0.5625 0
0.34375 0.5625 0
0.3125 0.59375 0
0.34375 0.59375 0
0.34375 0.5625 0
0.375 0.5625 0
0.34375 0.59375 0
0.375 0.59375 0
0.3125 0.59375 0
0.34375 0.59375 0
0.3125 0.625 0
0.34375 0.625 0
0.34375 0.59375 0
0.375 0.59375 0
0.34375 0.625 0
0.375 0.625 0
0.375 0.5 0
0.40625 0.5 0
0.375 0.53125 0
0.40625 0.53125 0
0.40625 0.5 0
0.4375 0.5 0
0.40625 0.53125 0
0.4375 0.53125 0
0.375 0.53125 0
0.40625 0.53125 0
0.375 0.5625 0
0.40625 0.5625 0
0.40625 0.53125 0
0.4375 0.53125 0
0.40625 0.5625 0
0.4375 0.5625 0
0.4375 0.5 0
0.46875 0.5 0
0.4375 0.53125 0
0.46875 0.53125 0
0.46875 0.5 0
0.5 0.5 0
0.46875 0.53125 0
0.5 0.53125 0
0.4375 0.53125 0
0.46875 0.53125 0
0.4375 0.5625 0
0.46875 0.5625 0
0.46875 0.53125 0
0.5 0.53125 0
0.46875 0.5625 0
0.5 0.5625 0
0.375 0.5625 0
0.40625 0.5625 0
0.375 0.59375 0
0.40625 0.59375 0
0.40625 0.5625 0
0.4375 0.5625 0
0.40625 0.59375 0
0.4375 0.59375 0
0.375 0.59375 0
0.40625 0.59375 0
0.375 0.625 0
0.40625 0.625 0
0.40625 0.59375 0
0.4375 0.59375 0
0.40625 0.625 0
0.4375 0.625 0
0.4375 0.5625 0
0.46875 0.5625 0
0.4375 0.59375 0
0.46875 0.59375 0
0.46875 0.5625 0
0.5 0.5625 0
0.46875 0.59375 0
0.5 0.59375 0
0.4375 0.59375 0
0.46875 0.59375 0
0.4375 0.625 0
0.46875 0.625 0
0.46875 0.59375 0
0.5 0.59375 0
0.46875 0.625 0
0.5 0.625 0
0.25 0.625 0
0.28125 0.625 0
0.25 0.65625 0
0.28125 0.65625 0
0.28125 0.625 0
0.3125 0.625 0
0.28125 0.65625 0
0.3125 0.65625 0
0.25 0.65625 0
0.28125 0.65625 0
0.25 0.6875 0
0.28125 0.6875 0
0.28125 0.65625 0
0.3125 0.65625 0
0.28125 0.6875 0
0.3125 0.6875 0
0.3125 0.625 0
0.34375 0.625 0
0.3125 0.65625 0
0.34375 0.65625 0
0.34375 0.625 0
0.375 0.625 0
0.34375 0.65625 0
0.375 0.65625 0
0.3125 0.65625 0
0.34375 0.65625 0
0.3125 0.6875 0
0.34375 0.6875 0
0.34375 0.65625 0
0.375 0.65625 0
0.34375 0.6875 0
0.375 0.6875 0
0.25 0.6875 0
0.28125 0.6875 0
0.25 0.71875 0
0.28125 0.71875 0
0.28125 0.6875 0
0.3125 0.6875 0
0.28125 0.71875 0
0.3125 0.71875 0
0.25 0.71875 0
0.28125 0.71875 0
0.25 0.75 0
0.28125 0.75 0
0.28125 0.71875 0
0.3125 0.71875 0
0.28125 0.75 0
0.3125 0.75 0
0.3125 0.6875 0
0.34375 0.6875 0
0.3125 0.71875 0
0.34375 0.71875 0
0.34375 0.6875 0
0.375 0.6875 0
0.34375 0.71875 0
0.375 0.71875 0
0.3125 0.71875 0
0.34375 0.71875 0
0.3125 0.75 0
0.34375 0.75 0
0.34375 0.71875 0
0.375 0.71875 0
0.34375 0.75 0
0.375 0.75 0
0.375 0.625 0
0.40625 0.625 0
0.375 0.65625 0
0.40625 0.65625 0
0.40625 0.625 0
0.4375 0.625 0
0.40625 0.65625 0
0.4375 0.65625 0
0.375 0.65625 0
0.40625 0.65625 0
0.375 0.6875 0
0.40625 0.6875 0
0.40625 0.65625 0
0.4375 0.65625 0
0.40625 0.6875 0
0.4375 0.6875 0
0.4375 0.625 0
0.46875 0.625 0
0.4375 0.65625 0
0.46875 0.65625 0
0.46875 0.625 0
0.5 0.625 0
0.46875 0.65625 0
0.5 0.65625 0
0.4375 0.65625 0
0.46875 0.65625 0
0.4375 0.6875 0
0.46875 0.6875 0
0.46875 0.65625 0
0.5 0.65625 0
0.46875 0.6875 0
0.5 0.6875 0
0.375 0.6875 0
0.40625 0.6875 0
0.375 0.71875 0
0.40625 0.71875 0
0.40625 0.6875 0
0.4375 0.6875 0
0.40625 0.71875 0
0.4375 0.71875 0
0.375 0.71875 0
0.40625 0.71875 0
0.375 0.75 0
0.40625 0.75 0
0.40625 0.71875 0
0.4375 0.71875 0
0.40625 0.75 0
0.4375 0.75 0
0.4375 0.6875 0
0.46875 0.6875 0
0.4375 0.71875 0
0.46875 0.71875 0
0.46875 0.6875 0
0.5 0.6875 0
0.46875 0.71875 0
0.5 0.71875 0
0.4375 0.71875 0
0.46875 0.71875 0
0.4375 0.75 0
0.46875 0.75 0
0.46875 0.71875 0
0.5 0.71875 0
0.46875 0.75 0
0.5 0.75 0
0 0.75 0
0.03125 0.75 0
0 0.78125 0
0.03125 0.78125 0
0.03125 0.75 0
0.0625 0.75 0
0.03125 0.78125 0
0.0625 0.78125 0
0 0.78125 0
0.03125 0.78125 0
0 0.8125 0
0.03125 0.8125 0
0.03125 0.78125 0
0.0625 0.78125 0
0.03125 0.8125 0
0.0625 0.8125 0
0.0625 0.75 0
0.09375 0.75 0
0.0625 0.78125 0
0.09375 0.78125 0
0.09375 0.75 0
0.125 0.75 0
0.09375 0.78125 0
0.125 0.78125 0
0.0625 0.78125 0
0.09375 0.78125 0
0.0625 0.8125 0
0.09375 0.8125 0
0.09375 0.78125 0
0.125 0.78125 0
0.09375 0.8125 0
0.125 0.8125 0
0 0.8125 0
0.03125 0.8125 0
0 0.84375 0
0.03125 0.84375 0
0.03125 0.8125 0
0.0625 0.8125 0
0.03125 0.84375 0
0.0625 0.84375 0
0 0.84375 0
0.03125 0.84375 0
0 0.875 0
0.03125 0.875 0
0.03125 0.84375 0
0.0625 0.84375 0
0.03125 0.875 0
0.0625 0.875 0
0.0625 0.8125 0
0.09375 0.8125 0
0.0625 0.84375 0
0.09375 0.84375 0
0.09375 0.8125 0
0.125 0.8125 0
0.09375 0.84375 0
0.125 0.84375 0
0.0625 0.84375 0
0.09375 0.84375 0
0.0625 0.875 0
0.09375 0.875 0
0.09375 0.84375 0
0.125 0.84375 0
0.09375 0.875 0
0.125 0.875 0
0.125 0.75 0
0.15625 0.75 0
0.125 0.78125 0
0.15625 0.78125 0
0.15625 0.75 0
0.1875 0.75 0
0.15625 0.78125 0
0.1875 0.78125 0
0.125 0.78125 0
0.15625 0.78125 0
0.125 0.8125 0
0.15625 0.8125 0
0.15625 0.78125 0
0.1875 0.78125 0
0.15625 0.8125 0
0.1875 0.8125 0
0.1875 0.75 0
0.21875 0.75 0
0.1875 0.78125 0
0.21875 0.78125 0
0.21875 0.75 0
0.25 0.75 0
0.21875 0.78125 0
0.25 0.78125 0
0.1875 0.78125 0
0.21875 0.78125 0
0.1875 0.8125 0
0.21875 0.8125 0
0.21875 0.78125 0
0.25 0.78125 0
0.21875 0.8125 0
0.25 0.8125 0
0.125 0.8125 0
0.15625 0.8125 0
0.125 0.84375 0
0.15625 0.84375 0
0.15625 0.8125 0
[...]
POINT_DATA 4096
SCALARS x_dis double 1
LOOKUP_TABLE default
-3.38043e-14 -2.62584e-14 3.33843e-14 7.19206e-14 -2.62584e-14 -3.58683e-14 7.19206e-14 1.2014e-13 3.33843e-14 7.19206e-14 -2.83175e-13 -1.59899e-13 7.19206e-14 1.2014e-13 -1.59899e-13 -3.4988e-13 -3.58683e-14 -3.1764e-14 1.2014e-13 9.72474e-14 -3.1764e-14 -3.43148e-14 9.72474e-14 1.05432e-13 1.2014e-13 9.72474e-14 -3.4988e-13 -2.72663e-13 9.72474e-14 1.05432e-13 -2.72663e-13 -2.98286e-13 -2.83175e-13 -1.59899e-13 -3.74144e-13 1.70736e-13 -1.59899e-13 -3.4988e-13 1.70736e-13 9.94719e-13 -3.74144e-13 1.70736e-13 -9.9405e-13 1.15098e-12 1.70736e-13 9.94719e-13 1.15098e-12 -1.88415e-12 -3.4988e-13 -2.72663e-13 9.94719e-13 6.15137e-13 -2.72663e-13 -2.98286e-13 6.15137e-13 6.94151e-13 9.94719e-13 6.15137e-13 -1.88415e-12 -7.68264e-13 6.15137e-13 6.94151e-13 -7.68264e-13 -9.40088e-13 -3.43148e-14 -3.29972e-14 1.05432e-13 1.02516e-13 -3.29972e-14 -3.34245e-14 1.02516e-13 1.0286e-13 1.05432e-13 1.02516e-13 -2.98286e-13 -2.9129e-13 1.02516e-13 1.0286e-13 -2.9129e-13 -2.91134e-13 -3.34245e-14 -3.3385e-14 1.0286e-13 1.03195e-13 -3.3385e-14 -3.33264e-14 1.03195e-13 1.02859e-13 1.0286e-13 1.03195e-13 -2.91134e-13 -2.92597e-13 1.03195e-13 1.02859e-13 -2.92597e-13 -2.91431e-13 -2.98286e-13 -2.9129e-13 6.94151e-13 6.90353e-13 -2.9129e-13 -2.91134e-13 6.90353e-13 6.76426e-13 6.94151e-13 6.90353e-13 -9.40088e-13 -9.70417e-13 6.90353e-13 6.76426e-13 -9.70417e-13 -9.13912e-13 -2.91134e-13 -2.92597e-13 6.76426e-13 6.86734e-13 -2.92597e-13 -2.91431e-13 6.86734e-13 6.81215e-13 6.76426e-13 6.86734e-13 -9.13912e-13 -9.4704e-13 6.86734e-13 6.81215e-13 -9.4704e-13 -9.31217e-13 -9.9405e-13 1.15098e-12 -1.79343e-11 -1.03017e-11 1.15098e-12 -1.88415e-12 -1.03017e-11 1.24326e-12 -1.79343e-11 -1.03017e-11 2.81923e-11 6.39904e-11 -1.03017e-11 1.24326e-12 6.39904e-11 2.48017e-11 -1.88415e-12 -7.68264e-13 1.24326e-12 -3.53305e-12 -7.68264e-13 -9.40088e-13 -3.53305e-12 -3.24879e-12 1.24326e-12 -3.53305e-12 2.48017e-11 3.6191e-11 -3.53305e-12 -3.24879e-12 3.6191e-11 3.71943e-11 2.81923e-11 6.39904e-11 -4.06862e-10 -3.10719e-10 6.39904e-11 2.48017e-11 -3.10719e-10 -1.83196e-10 -4.06862e-10 -3.10719e-10 8.76308e-10 1.42981e-09 -3.10719e-10 -1.83196e-10 1.42981e-09 1.07476e-09 2.48017e-11 3.6191e-11 -1.83196e-10 -2.22384e-10 3.6191e-11 3.71943e-11 -2.22384e-10 -2.31968e-10 -1.83196e-10 -2.22384e-10 1.07476e-09 1.11669e-09 -2.22384e-10 -2.31968e-10 1.11669e-09 1.16175e-09 -9.40088e-13 -9.70417e-13 -3.24879e-12 -2.87058e-12 -9.70417e-13 -9.13912e-13 -2.87058e-12 -3.22696e-12 -3.24879e-12 -2.87058e-12 3.71943e-11 3.53762e-11 -2.87058e-12 -3.22696e-12 3.53762e-11 3.65175e-11 -9.13912e-13 -9.4704e-13 -3.22696e-12 -3.04948e-12 -9.4704e-13 -9.31217e-13 -3.04948e-12 -3.124e-12 -3.22696e-12 -3.04948e-12 3.65175e-11 3.60442e-11 -3.04948e-12 -3.124e-12 3.60442e-11 3.62135e-11 3.71943e-11 3.53762e-11 -2.31968e-10 -2.22589e-10 3.53762e-11 3.65175e-11 -2.22589e-10 -2.27839e-10 -2.31968e-10 -2.22589e-10 1.16175e-09 1.13325e-09 -2.22589e-10 -2.27839e-10 1.13325e-09 1.14485e-09 3.65175e-11 3.60442e-11 -2.27839e-10 -2.2587e-10 3.60442e-11 3.62135e-11 -2.2587e-10 -2.26508e-10 -2.27839e-10 -2.2587e-10 1.14485e-09 1.1413e-09 -2.2587e-10 -2.26508e-10 1.1413e-09 1.14222e-09 -3.33264e-14 -3.33789e-14 1.02859e-13 1.03054e-13 -3.33789e-14 -3.33493e-14 1.03054e-13 1.02965e-13 1.02859e-13 1.03054e-13 -2.91431e-13 -2.92065e-13 1.03054e-13 1.02965e-13 -2.92065e-13 -2.91784e-13 -3.33493e-14 -3.33625e-14 1.02965e-13 1.02999e-13 -3.33625e-14 -3.33565e-14 1.02999e-13 1.02994e-13 1.02965e-13 1.02999e-13 -2.91784e-13 -2.91893e-13 1.02999e-13 1.02994e-13 -2.91893e-13 -2.91858e-13 -2.91431e-13 -2.92065e-13 6.81215e-13 6.83603e-13 -2.92065e-13 -2.91784e-13 6.83603e-13 6.82711e-13 6.81215e-13 6.83603e-13 -9.31217e-13 -9.3755e-13 6.83603e-13 6.82711e-13 -9.3755e-13 -9.3533e-13 -2.91784e-13 -2.91893e-13 6.82711e-13 6.83007e-13 -2.91893e-13 -2.91858e-13 6.83007e-13 6.8292e-13 6.82711e-13 6.83007e-13 -9.3533e-13 -9.36026e-13 6.83007e-13 6.8292e-13 -9.36026e-13 -9.35831e-13 -3.33565e-14 -3.33751e-14 1.02994e-13 1.0296e-13 -3.33751e-14 -3.32662e-14 1.0296e-13 1.03121e-13 1.02994e-13 1.0296e-13 -2.91858e-13 -2.91856e-13 1.0296e-13 1.03121e-13 -2.91856e-13 -2.91895e-13 -3.32662e-14 -3.35731e-14 1.03121e-13 1.02608e-13 -3.35731e-14 -3.56924e-14 1.02608e-13 1.02738e-13 1.03121e-13 1.02608e-13 -2.91895e-13 -2.91787e-13 1.02608e-13 1.02738e-13 -2.91787e-13 -2.92425e-13 -2.91858e-13 -2.91856e-13 6.8292e-13 6.82938e-13 -2.91856e-13 -2.91895e-13 6.82938e-13 6.82953e-13 6.8292e-13 6.82938e-13 -9.35831e-13 -9.35878e-13 6.82938e-13 6.82953e-13 -9.35878e-13 -9.35874e-13 -2.91895e-13 -2.91787e-13 6.82953e-13 6.82896e-13 -2.91787e-13 -2.92425e-13 6.82896e-13 6.83005e-13 6.82953e-13 6.82896e-13 -9.35874e-13 -9.35855e-13 6.82896e-13 6.83005e-13 -9.35855e-13 -9.35895e-13 -9.31217e-13 -9.3755e-13 -3.124e-12 -3.09734e-12 -9.3755e-13 -9.3533e-13 -3.09734e-12 -3.10566e-12 -3.124e-12 -3.09734e-12 3.62135e-11 3.6161e-11 -3.09734e-12 -3.10566e-12 3.6161e-11 3.61753e-11 -9.3533e-13 -9.36026e-13 -3.10566e-12 -3.1034e-12 -9.36026e-13 -9.35831e-13 -3.1034e-12 -3.10392e-12 -3.10566e-12 -3.1034e-12 3.61753e-11 3.6172e-11 -3.1034e-12 -3.10392e-12 3.6172e-11 3.61726e-11 3.62135e-11 3.6161e-11 -2.26508e-10 -2.26333e-10 3.6161e-11 3.61753e-11 -2.26333e-10 -2.26372e-10 -2.26508e-10 -2.26333e-10 1.14222e-09 1.14202e-09 -2.26333e-10 -2.26372e-10 1.14202e-09 1.14205e-09 3.61753e-11 3.6172e-11 -2.26372e-10 -2.26366e-10 3.6172e-11 3.61726e-11 -2.26366e-10 -2.26366e-10 -2.26372e-10 -2.26366e-10 1.14205e-09 1.14205e-09 -2.26366e-10 -2.26366e-10 1.14205e-09 1.14205e-09 -9.35831e-13 -9.35878e-13 -3.10392e-12 -3.10383e-12 -9.35878e-13 -9.35874e-13 -3.10383e-12 -3.10383e-12 -3.10392e-12 -3.10383e-12 3.61726e-11 3.61725e-11 -3.10383e-12 -3.10383e-12 3.61725e-11 3.61725e-11 -9.35874e-13 -9.35855e-13 -3.10383e-12 -3.10384e-12 -9.35855e-13 -9.35895e-13 -3.10384e-12 -3.10383e-12 -3.10383e-12 -3.10384e-12 3.61725e-11 3.61725e-11 -3.10384e-12 -3.10383e-12 3.61725e-11 3.61725e-11 3.61726e-11 3.61725e-11 -2.26366e-10 -2.26366e-10 3.61725e-11 3.61725e-11 -2.26366e-10 -2.26366e-10 -2.26366e-10 -2.26366e-10 1.14205e-09 1.14205e-09 -2.26366e-10 -2.26366e-10 1.14205e-09 1.14205e-09 3.61725e-11 3.61725e-11 -2.26366e-10 -2.26366e-10 3.61725e-11 3.61725e-11 -2.26366e-10 -2.26366e-10 -2.26366e-10 -2.26366e-10 1.14205e-09 1.14205e-09 -2.26366e-10 -2.26366e-10 1.14205e-09 1.14205e-09 8.76308e-10 1.42981e-09 -7.10802e-09 -5.85797e-09 1.42981e-09 1.07476e-09 -5.85797e-09 -5.03305e-09 -7.10802e-09 -5.85797e-09 1.59351e-08 2.26117e-08 -5.85797e-09 -5.03305e-09 2.26117e-08 2.22544e-08 1.07476e-09 1.11669e-09 -5.03305e-09 -4.98303e-09 1.11669e-09 1.16175e-09 -4.98303e-09 -5.26428e-09 -5.03305e-09 -4.98303e-09 2.22544e-08 2.10321e-08 -4.98303e-09 -5.26428e-09 2.10321e-08 2.17729e-08 1.59351e-08 2.26117e-08 -1.00556e-07 -7.84689e-08 2.26117e-08 2.22544e-08 -7.84689e-08 -8.47552e-08 -1.00556e-07 -7.84689e-08 1.85432e-07 2.29009e-07 -7.84689e-08 -8.47552e-08 2.29009e-07 3.01336e-07 2.22544e-08 2.10321e-08 -8.47552e-08 -7.78228e-08 2.10321e-08 2.17729e-08 -7.78228e-08 -8.20501e-08 -8.47552e-08 -7.78228e-08 3.01336e-07 2.71989e-07 -7.78228e-08 -8.20501e-08 2.71989e-07 2.77904e-07 1.16175e-09 1.13325e-09 -5.26428e-09 -5.12735e-09 1.13325e-09 1.14485e-09 -5.12735e-09 -5.17796e-09 -5.26428e-09 -5.12735e-09 2.17729e-08 2.15049e-08 -5.12735e-09 -5.17796e-09 2.15049e-08 2.15665e-08 1.14485e-09 1.1413e-09 -5.17796e-09 -5.16464e-09 1.1413e-09 1.14222e-09 -5.16464e-09 -5.1673e-09 -5.17796e-09 -5.16464e-09 2.15665e-08 2.15575e-08 -5.16464e-09 -5.1673e-09 2.15575e-08 2.15567e-08 2.17729e-08 2.15049e-08 -8.20501e-08 -8.06903e-08 2.15049e-08 2.15665e-08 -8.06903e-08 -8.10156e-08 -8.20501e-08 -8.06903e-08 2.77904e-07 2.77533e-07 -8.06903e-08 -8.10156e-08 2.77533e-07 2.77206e-07 2.15665e-08 2.15575e-08 -8.10156e-08 -8.09776e-08 2.15575e-08 2.15567e-08 -8.09776e-08 -8.09694e-08 -8.10156e-08 -8.09776e-08 2.77206e-07 2.77401e-07 -8.09776e-08 -8.09694e-08 2.77401e-07 2.77329e-07 1.85432e-07 2.29009e-07 -1.07503e-06 -4.87482e-07 2.29009e-07 3.01336e-07 -4.87482e-07 -7.85386e-07 -1.07503e-06 -4.87482e-07 -2.51677e-07 -4.2216e-07 -4.87482e-07 -7.85386e-07 -4.2216e-07 1.1591e-06 3.01336e-07 2.71989e-07 -7.85386e-07 -7.05874e-07 2.71989e-07 2.77904e-07 -7.05874e-07 -7.32932e-07 -7.85386e-07 -7.05874e-07 1.1591e-06 7.89946e-07 -7.05874e-07 -7.32932e-07 7.89946e-07 8.07389e-07 -2.51677e-07 -4.2216e-07 -4.71643e-06 1.09798e-05 -4.2216e-07 1.1591e-06 1.09798e-05 9.85745e-06 -4.71643e-06 1.09798e-05 -9e-05 -9e-05 1.09798e-05 9.85745e-06 -9e-05 -9e-05 1.1591e-06 7.89946e-07 9.85745e-06 9.55732e-06 7.89946e-07 8.07389e-07 9.55732e-06 9.69191e-06 9.85745e-06 9.55732e-06 -9e-05 -9e-05 9.55732e-06 9.69191e-06 -9e-05 -9e-05 2.77904e-07 2.77533e-07 -7.32932e-07 -7.26092e-07 2.77533e-07 2.77206e-07 -7.26092e-07 -7.27677e-07 -7.32932e-07 -7.26092e-07 8.07389e-07 8.21851e-07 -7.26092e-07 -7.27677e-07 8.21851e-07 8.14252e-07 2.77206e-07 2.77401e-07 -7.27677e-07 -7.27375e-07 2.77401e-07 2.77329e-07 -7.27375e-07 -7.27412e-07 -7.27677e-07 -7.27375e-07 8.14252e-07 8.16746e-07 -7.27375e-07 -7.27412e-07 8.16746e-07 8.16094e-07 8.07389e-07 8.21851e-07 9.69191e-06 9.65936e-06 8.21851e-07 8.14252e-07 9.65936e-06 9.66478e-06 9.69191e-06 9.65936e-06 -9e-05 -9e-05 9.65936e-06 9.66478e-06 -9e-05 -9e-05 8.14252e-07 8.16746e-07 9.66478e-06 9.66443e-06 8.16746e-07 8.16094e-07 9.66443e-06 9.66424e-06 9.66478e-06 9.66443e-06 -9e-05 -9e-05 9.66443e-06 9.66424e-06 -9e-05 -9e-05 1.14222e-09 1.14202e-09 -5.1673e-09 -5.16705e-09 1.14202e-09 1.14205e-09 -5.16705e-09 -5.16696e-09 -5.1673e-09 -5.16705e-09 2.15567e-08 2.15578e-08 -5.16705e-09 -5.16696e-09 2.15578e-08 2.15574e-08 1.14205e-09 1.14205e-09 -5.16696e-09 -5.16703e-09 1.14205e-09 1.14205e-09 -5.16703e-09 -5.167e-09 -5.16696e-09 -5.16703e-09 2.15574e-08 2.15575e-08 -5.16703e-09 -5.167e-09 2.15575e-08 2.15575e-08 2.15567e-08 2.15578e-08 -8.09694e-08 -8.09768e-08 2.15578e-08 2.15574e-08 -8.09768e-08 -8.09736e-08 -8.09694e-08 -8.09768e-08 2.77329e-07 2.7735e-07 -8.09768e-08 -8.09736e-08 2.7735e-07 2.77345e-07 2.15574e-08 2.15575e-08 -8.09736e-08 -8.09747e-08 2.15575e-08 2.15575e-08 -8.09747e-08 -8.09743e-08 -8.09736e-08 -8.09747e-08 2.77345e-07 2.77346e-07 -8.09747e-08 -8.09743e-08 2.77346e-07 2.77346e-07 1.14205e-09 1.14205e-09 -5.167e-09 -5.16701e-09 1.14205e-09 1.14205e-09 -5.16701e-09 -5.16701e-09 -5.167e-09 -5.16701e-09 2.15575e-08 2.15575e-08 -5.16701e-09 -5.16701e-09 2.15575e-08 2.15575e-08 1.14205e-09 1.14205e-09 -5.16701e-09 -5.16701e-09 1.14205e-09 1.14205e-09 -5.16701e-09 -5.16701e-09 -5.16701e-09 -5.16701e-09 2.15575e-08 2.15575e-08 -5.16701e-09 -5.16701e-09 2.15575e-08 2.15575e-08 2.15575e-08 2.15575e-08 -8.09743e-08 -8.09744e-08 2.15575e-08 2.15575e-08 -8.09744e-08 -8.09744e-08 -8.09743e-08 -8.09744e-08 2.77346e-07 2.77346e-07 -8.09744e-08 -8.09744e-08 2.77346e-07 2.77346e-07 2.15575e-08 2.15575e-08 -8.09744e-08 -8.09744e-08 2.15575e-08 2.15575e-08 -8.09744e-08 -8.09744e-08 -8.09744e-08 -8.09744e-08 2.77346e-07 2.77346e-07 -8.09744e-08 -8.09744e-08 2.77346e-07 2.77346e-07 2.77329e-07 2.7735e-07 -7.27412e-07 -7.27416e-07 2.7735e-07 2.77345e-07 -7.27416e-07 -7.27411e-07 -7.27412e-07 -7.27416e-07 8.16094e-07 8.16236e-07 -7.27416e-07 -7.27411e-07 8.16236e-07 8.16211e-07 2.77345e-07 2.77346e-07 -7.27411e-07 -7.27413e-07 2.77346e-07 2.77346e-07 -7.27413e-07 -7.27412e-07 -7.27411e-07 -7.27413e-07 8.16211e-07 8.16214e-07 -7.27413e-07 -7.27412e-07 8.16214e-07 8.16214e-07 8.16094e-07 8.16236e-07 9.66424e-06 9.66435e-06 8.16236e-07 8.16211e-07 9.66435e-06 9.66431e-06 9.66424e-06 9.66435e-06 -9e-05 -9e-05 9.66435e-06 9.66431e-06 -9e-05 -9e-05 8.16211e-07 8.16214e-07 9.66431e-06 9.66432e-06 8.16214e-07 8.16214e-07 9.66432e-06 9.66432e-06 9.66431e-06 9.66432e-06 -9e-05 -9e-05 9.66432e-06 9.66432e-06 -9e-05 -9e-05 2.77346e-07 2.77346e-07 -7.27412e-07 -7.27413e-07 2.77346e-07 2.77346e-07 -7.27413e-07 -7.27413e-07 -7.27412e-07 -7.27413e-07 8.16214e-07 8.16214e-07 -7.27413e-07 -7.27413e-07 8.16214e-07 8.16214e-07 2.77346e-07 2.77346e-07 -7.27413e-07 -7.27413e-07 2.77346e-07 2.77346e-07 -7.27413e-07 -7.27413e-07 -7.27413e-07 -7.27413e-07 8.16214e-07 8.16214e-07 -7.27413e-07 -7.27413e-07 8.16214e-07 8.16214e-07 8.16214e-07 8.16214e-07 9.66432e-06 9.66432e-06 8.16214e-07 8.16214e-07 9.66432e-06 9.66432e-06 9.66432e-06 9.66432e-06 -9e-05 -9e-05 9.66432e-06 9.66432e-06 -9e-05 -9e-05 8.16214e-07 8.16214e-07 9.66432e-06 9.66432e-06 8.16214e-07 8.16214e-07 9.66432e-06 9.66432e-06 9.66432e-06 9.66432e-06 -9e-05 -9e-05 9.66432e-06 9.66432e-06 -9e-05 -9e-05 -3.56924e-14 -7.62715e-14 1.02738e-13 1.15468e-13 -7.62715e-14 -6.252e-14 1.15468e-13 1.12283e-13 1.02738e-13 1.15468e-13 -2.92425e-13 -2.95793e-13 1.15468e-13 1.12283e-13 -2.95793e-13 -2.94575e-13 -6.252e-14 -6.73975e-14 1.12283e-13 1.13131e-13 -6.73975e-14 -6.61552e-14 1.13131e-13 1.12912e-13 1.12283e-13 1.13131e-13 -2.94575e-13 -2.94838e-13 1.13131e-13 1.12912e-13 -2.94838e-13 -2.94829e-13 -2.92425e-13 -2.95793e-13 6.83005e-13 6.83987e-13 -2.95793e-13 -2.94575e-13 6.83987e-13 6.83744e-13 6.83005e-13 6.83987e-13 -9.35895e-13 -9.36171e-13 6.83987e-13 6.83744e-13 -9.36171e-13 -9.36103e-13 -2.94575e-13 -2.94838e-13 6.83744e-13 6.83783e-13 -2.94838e-13 -2.94829e-13 6.83783e-13 6.83807e-13 6.83744e-13 6.83783e-13 -9.36103e-13 -9.36088e-13 6.83783e-13 6.83807e-13 -9.36088e-13 -9.3615e-13 -6.61552e-14 -6.64602e-14 1.12912e-13 1.12952e-13 -6.64602e-14 -6.64031e-14 1.12952e-13 1.12966e-13 1.12912e-13 1.12952e-13 -2.94829e-13 -2.948e-13 1.12952e-13 1.12966e-13 -2.948e-13 -2.94862e-13 -6.64031e-14 -6.63923e-14 1.12966e-13 1.12916e-13 -6.63923e-14 -6.64397e-14 1.12916e-13 1.13025e-13 1.12966e-13 1.12916e-13 -2.94862e-13 -2.9472e-13 1.12916e-13 1.13025e-13 -2.9472e-13 -2.95036e-13 -2.94829e-13 -2.948e-13 6.83807e-13 6.83742e-13 -2.948e-13 -2.94862e-13 6.83742e-13 6.83909e-13 6.83807e-13 6.83742e-13 -9.3615e-13 -9.3597e-13 6.83742e-13 6.83909e-13 -9.3597e-13 -9.36495e-13 -2.94862e-13 -2.9472e-13 6.83909e-13 6.83489e-13 -2.9472e-13 -2.95036e-13 6.83489e-13 6.8448e-13 6.83909e-13 6.83489e-13 -9.36495e-13 -9.35058e-13 6.83489e-13 6.8448e-13 -9.35058e-13 -9.38655e-13 -9.35895e-13 -9.36171e-13 -3.10383e-12 -3.10376e-12 -9.36171e-13 -9.36103e-13 -3.10376e-12 -3.10376e-12 -3.10383e-12 -3.10376e-12 3.61725e-11 3.61725e-11 -3.10376e-12 -3.10376e-12 3.61725e-11 3.61725e-11 -9.36103e-13 -9.36088e-13 -3.10376e-12 -3.1038e-12 -9.36088e-13 -9.3615e-13 -3.1038e-12 -3.10367e-12 -3.10376e-12 -3.1038e-12 3.61725e-11 3.61726e-11 -3.1038e-12 -3.10367e-12 3.61726e-11 3.61722e-11 3.61725e-11 3.61725e-11 -2.26366e-10 -2.26366e-10 3.61725e-11 3.61725e-11 -2.26366e-10 -2.26366e-10 -2.26366e-10 -2.26366e-10 1.14205e-09 1.14205e-09 -2.26366e-10 -2.26366e-10 1.14205e-09 1.14205e-09 3.61725e-11 3.61726e-11 -2.26366e-10 -2.26366e-10 3.61726e-11 3.61722e-11 -2.26366e-10 -2.26366e-10 -2.26366e-10 -2.26366e-10 1.14205e-09 1.14205e-09 -2.26366e-10 -2.26366e-10 1.14205e-09 1.14205e-09 -9.3615e-13 -9.3597e-13 -3.10367e-12 -3.10409e-12 -9.3597e-13 -9.36495e-13 -3.10409e-12 -3.10279e-12 -3.10367e-12 -3.10409e-12 3.61722e-11 3.61736e-11 -3.10409e-12 -3.10279e-12 3.61736e-11 3.61689e-11 -9.36495e-13 -9.35058e-13 -3.10279e-12 -3.1066e-12 -9.35058e-13 -9.38655e-13 -3.1066e-12 -3.09642e-12 -3.10279e-12 -3.1066e-12 3.61689e-11 3.61833e-11 -3.1066e-12 -3.09642e-12 3.61833e-11 3.61433e-11 3.61722e-11 3.61736e-11 -2.26366e-10 -2.26368e-10 3.61736e-11 3.61689e-11 -2.26368e-10 -2.26359e-10 -2.26366e-10 -2.26368e-10 1.14205e-09 1.14205e-09 -2.26368e-10 -2.26359e-10 1.14205e-09 1.14202e-09 3.61689e-11 3.61833e-11 -2.26359e-10 -2.26391e-10 3.61833e-11 3.61433e-11 -2.26391e-10 -2.26294e-10 -2.26359e-10 -2.26391e-10 1.14202e-09 1.14213e-09 -2.26391e-10 -2.26294e-10 1.14213e-09 1.14178e-09 -6.64397e-14 -6.63385e-14 1.13025e-13 1.12793e-13 -6.63385e-14 -6.65562e-14 1.12793e-13 1.13294e-13 1.13025e-13 1.12793e-13 -2.95036e-13 -2.94384e-13 1.12793e-13 1.13294e-13 -2.94384e-13 -2.95629e-13 -6.65562e-14 -6.60497e-14 1.13294e-13 1.1218e-13 -6.60497e-14 -6.73072e-14 1.1218e-13 1.14725e-13 1.13294e-13 1.1218e-13 -2.95629e-13 -2.93362e-13 1.1218e-13 1.14725e-13 -2.93362e-13 -2.98547e-13 -2.95036e-13 -2.94384e-13 6.8448e-13 6.82339e-13 -2.94384e-13 -2.95629e-13 6.82339e-13 6.86446e-13 6.8448e-13 6.82339e-13 -9.38655e-13 -9.30677e-13 6.82339e-13 6.86446e-13 -9.30677e-13 -9.45653e-13 -2.95629e-13 -2.93362e-13 6.86446e-13 6.79437e-13 -2.93362e-13 -2.98547e-13 6.79437e-13 6.93621e-13 6.86446e-13 6.79437e-13 -9.45653e-13 -9.22305e-13 6.79437e-13 6.93621e-13 -9.22305e-13 -9.66592e-13 -6.73072e-14 -6.3633e-14 1.14725e-13 1.07414e-13 -6.3633e-14 -7.53662e-14 1.07414e-13 1.2964e-13 1.14725e-13 1.07414e-13 -2.98547e-13 -2.78935e-13 1.07414e-13 1.2964e-13 -2.78935e-13 -3.63404e-13 -7.53662e-14 -5.18471e-14 1.2964e-13 7.64898e-14 -5.18471e-14 -2.58759e-14 7.64898e-14 9.92712e-14 1.2964e-13 7.64898e-14 -3.63404e-13 -1.7378e-13 7.64898e-14 9.92712e-14 -1.7378e-13 2.10032e-14 -2.98547e-13 -2.78935e-13 6.93621e-13 6.37052e-13 -2.78935e-13 -3.63404e-13 6.37052e-13 8.84173e-13 6.93621e-13 6.37052e-13 -9.66592e-13 -7.63542e-13 6.37052e-13 8.84173e-13 -7.63542e-13 -1.74996e-12 -3.63404e-13 -1.7378e-13 8.84173e-13 2.20246e-13 -1.7378e-13 2.10032e-14 2.20246e-13 5.15699e-13 8.84173e-13 2.20246e-13 -1.74996e-12 4.84375e-13 2.20246e-13 5.15699e-13 4.84375e-13 3.57999e-12 -9.38655e-13 -9.30677e-13 -3.09642e-12 -3.12036e-12 -9.30677e-13 -9.45653e-13 -3.12036e-12 -3.07377e-12 -3.09642e-12 -3.12036e-12 3.61433e-11 3.6241e-11 -3.12036e-12 -3.07377e-12 3.6241e-11 3.60393e-11 -9.45653e-13 -9.22305e-13 -3.07377e-12 -3.14286e-12 -9.22305e-13 -9.66592e-13 -3.14286e-12 -3.04704e-12 -3.07377e-12 -3.14286e-12 3.60393e-11 3.63792e-11 -3.14286e-12 -3.04704e-12 3.63792e-11 3.58135e-11 3.61433e-11 3.6241e-11 -2.26294e-10 -2.26547e-10 3.6241e-11 3.60393e-11 -2.26547e-10 -2.25987e-10 -2.26294e-10 -2.26547e-10 1.14178e-09 1.14276e-09 -2.26547e-10 -2.25987e-10 1.14276e-09 1.14042e-09 3.60393e-11 3.63792e-11 -2.25987e-10 -2.27009e-10 3.63792e-11 3.58135e-11 -2.27009e-10 -2.25327e-10 -2.25987e-10 -2.27009e-10 1.14042e-09 1.14517e-09 -2.27009e-10 -2.25327e-10 1.14517e-09 1.13644e-09 -9.66592e-13 -7.63542e-13 -3.04704e-12 -3.48764e-12 -7.63542e-13 -1.74996e-12 -3.48764e-12 -1.14389e-12 -3.04704e-12 -3.48764e-12 3.58135e-11 3.78253e-11 -3.48764e-12 -1.14389e-12 3.78253e-11 2.87649e-11 -1.74996e-12 4.84375e-13 -1.14389e-12 -8.2506e-12 4.84375e-13 3.57999e-12 -8.2506e-12 -3.62949e-12 -1.14389e-12 -8.2506e-12 2.87649e-11 4.80737e-11 -8.2506e-12 -3.62949e-12 4.80737e-11 9.40755e-11 3.58135e-11 3.78253e-11 -2.25327e-10 -2.29917e-10 3.78253e-11 2.87649e-11 -2.29917e-10 -2.13344e-10 -2.25327e-10 -2.29917e-10 1.13644e-09 1.15682e-09 -2.29917e-10 -2.13344e-10 1.15682e-09 1.0955e-09 2.87649e-11 4.80737e-11 -2.13344e-10 -2.63594e-10 4.80737e-11 9.40755e-11 -2.63594e-10 -1.9099e-10 -2.13344e-10 -2.63594e-10 1.0955e-09 1.18241e-09 -2.63594e-10 -1.9099e-10 1.18241e-09 1.80686e-09 1.14205e-09 1.14205e-09 -5.16701e-09 -5.16701e-09 1.14205e-09 1.14205e-09 -5.16701e-09 -5.16701e-09 -5.16701e-09 -5.16701e-09 2.15575e-08 2.15575e-08 -5.16701e-09 -5.16701e-09 2.15575e-08 2.15575e-08 1.14205e-09 1.14205e-09 -5.16701e-09 -5.16701e-09 1.14205e-09 1.14205e-09 -5.16701e-09 -5.167e-09 -5.16701e-09 -5.16701e-09 2.15575e-08 2.15575e-08 -5.16701e-09 -5.167e-09 2.15575e-08 2.15575e-08 2.15575e-08 2.15575e-08 -8.09744e-08 -8.09744e-08 2.15575e-08 2.15575e-08 -8.09744e-08 -8.09744e-08 -8.09744e-08 -8.09744e-08 2.77346e-07 2.77346e-07 -8.09744e-08 -8.09744e-08 2.77346e-07 2.77346e-07 2.15575e-08 2.15575e-08 -8.09744e-08 -8.09744e-08 2.15575e-08 2.15575e-08 -8.09744e-08 -8.09744e-08 -8.09744e-08 -8.09744e-08 2.77346e-07 2.77346e-07 -8.09744e-08 -8.09744e-08 2.77346e-07 2.77346e-07 1.14205e-09 1.14205e-09 -5.167e-09 -5.16702e-09 1.14205e-09 1.14202e-09 -5.16702e-09 -5.16696e-09 -5.167e-09 -5.16702e-09 2.15575e-08 2.15575e-08 -5.16702e-09 -5.16696e-09 2.15575e-08 2.15574e-08 1.14202e-09 1.14213e-09 -5.16696e-09 -5.16717e-09 1.14213e-09 1.14178e-09 