# vtk DataFile Version 3.0
#This file was generated by the deal.II library on 2022/11/2 at 18:41:06
ASCII
DATASET UNSTRUCTURED_GRID

POINTS 4096 double
0 0.5 0
0.03125 0.5 0
0 0.53125 0
0.03125 0.53125 0
0.03125 0.5 0
0.0625 0.5 0
0.03125 0.53125 0
0.0625 0.53125 0
0 0.53125 0
0.03125 0.53125 0
0 0.5625 0
0.03125 0.5625 0
0.03125 0.53125 0
0.0625 0.53125 0
0.03125 0.5625 0
0.0625 0.5625 0
0.0625 0.5 0
0.09375 0.5 0
0.0625 0.53125 0
0.09375 0.53125 0
0.09375 0.5 0
0.125 0.5 0
0.09375 0.53125 0
0.125 0.53125 0
0.0625 0.53125 0
0.09375 0.53125 0
0.0625 0.5625 0
0.09375 0.5625 0
0.09375 0.53125 0
0.125 0.53125 0
0.09375 0.5625 0
0.125 0.5625 0
0 0.5625 0
0.03125 0.5625 0
0 0.59375 0
0.03125 0.59375 0
0.03125 0.5625 0
0.0625 0.5625 0
0.03125 0.59375 0
0.0625 0.59375 0
0 0.59375 0
0.03125 0.59375 0
0 0.625 0
0.03125 0.625 0
0.03125 0.59375 0
0.0625 0.59375 0
0.03125 0.625 0
0.0625 0.625 0
0.0625 0.5625 0
0.09375 0.5625 0
0.0625 0.59375 0
0.09375 0.59375 0
0.09375 0.5625 0
0.125 0.5625 0
0.09375 0.59375 0
0.125 0.59375 0
0.0625 0.59375 0
0.09375 0.59375 0
0.0625 0.625 0
0.09375 0.625 0
0.09375 0.59375 0
0.125 0.59375 0
0.09375 0.625 0
0.125 0.625 0
0.125 0.5 0
0.15625 0.5 0
0.125 0.53125 0
0.15625 0.53125 0
0.15625 0.5 0
0.1875 0.5 0
0.15625 0.53125 0
0.1875 0.53125 0
0.125 0.53125 0
0.15625 0.53125 0
0.125 0.5625 0
0.15625 0.5625 0
0.15625 0.53125 0
0.1875 0.53125 0
0.15625 0.5625 0
0.1875 0.5625 0
0.1875 0.5 0
0.21875 0.5 0
0.1875 0.53125 0
0.21875 0.53125 0
0.21875 0.5 0
0.25 0.5 0
0.21875 0.53125 0
0.25 0.53125 0
0.1875 0.53125 0
0.21875 0.53125 0
0.1875 0.5625 0
0.21875 0.5625 0
0.21875 0.53125 0
0.25 0.53125 0
0.21875 0.5625 0
0.25 0.5625 0
0.125 0.5625 0
0.15625 0.5625 0
0.125 0.59375 0
0.15625 0.59375 0
0.15625 0.5625 0
0.1875 0.5625 0
0.15625 0.59375 0
0.1875 0.59375 0
0.125 0.59375 0
0.15625 0.59375 0
0.125 0.625 0
0.15625 0.625 0
0.15625 0.59375 0
0.1875 0.59375 0
0.15625 0.625 0
0.1875 0.625 0
0.1875 0.5625 0
0.21875 0.5625 0
0.1875 0.59375 0
0.21875 0.59375 0
0.21875 0.5625 0
0.25 0.5625 0
0.21875 0.59375 0
0.25 0.59375 0
0.1875 0.59375 0
0.21875 0.59375 0
0.1875 0.625 0
0.21875 0.625 0
0.21875 0.59375 0
0.25 0.59375 0
0.21875 0.625 0
0.25 0.625 0
0 0.625 0
0.03125 0.625 0
0 0.65625 0
0.03125 0.65625 0
0.03125 0.625 0
0.0625 0.625 0
0.03125 0.65625 0
0.0625 0.65625 0
0 0.65625 0
0.03125 0.65625 0
0 0.6875 0
0.03125 0.6875 0
0.03125 0.65625 0
0.0625 0.65625 0
0.03125 0.6875 0
0.0625 0.6875 0
0.0625 0.625 0
0.09375 0.625 0
0.0625 0.65625 0
0.09375 0.65625 0
0.09375 0.625 0
0.125 0.625 0
0.09375 0.65625 0
0.125 0.65625 0
0.0625 0.65625 0
0.09375 0.65625 0
0.0625 0.6875 0
0.09375 0.6875 0
0.09375 0.65625 0
0.125 0.65625 0
0.09375 0.6875 0
0.125 0.6875 0
0 0.6875 0
0.03125 0.6875 0
0 0.71875 0
0.03125 0.71875 0
0.03125 0.6875 0
0.0625 0.6875 0
0.03125 0.71875 0
0.0625 0.71875 0
0 0.71875 0
0.03125 0.71875 0
0 0.75 0
0.03125 0.75 0
0.03125 0.71875 0
0.0625 0.71875 0
0.03125 0.75 0
0.0625 0.75 0
0.0625 0.6875 0
0.09375 0.6875 0
0.0625 0.71875 0
0.09375 0.71875 0
0.09375 0.6875 0
0.125 0.6875 0
0.09375 0.71875 0
0.125 0.71875 0
0.0625 0.71875 0
0.09375 0.71875 0
0.0625 0.75 0
0.09375 0.75 0
0.09375 0.71875 0
0.125 0.71875 0
0.09375 0.75 0
0.125 0.75 0
0.125 0.625 0
0.15625 0.625 0
0.125 0.65625 0
0.15625 0.65625 0
0.15625 0.625 0
0.1875 0.625 0
0.15625 0.65625 0
0.1875 0.65625 0
0.125 0.65625 0
0.15625 0.65625 0
0.125 0.6875 0
0.15625 0.6875 0
0.15625 0.65625 0
0.1875 0.65625 0
0.15625 0.6875 0
0.1875 0.6875 0
0.1875 0.625 0
0.21875 0.625 0
0.1875 0.65625 0
0.21875 0.65625 0
0.21875 0.625 0
0.25 0.625 0
0.21875 0.65625 0
0.25 0.65625 0
0.1875 0.65625 0
0.21875 0.65625 0
0.1875 0.6875 0
0.21875 0.6875 0
0.21875 0.65625 0
0.25 0.65625 0
0.21875 0.6875 0
0.25 0.6875 0
0.125 0.6875 0
0.15625 0.6875 0
0.125 0.71875 0
0.15625 0.71875 0
0.15625 0.6875 0
0.1875 0.6875 0
0.15625 0.71875 0
0.1875 0.71875 0
0.125 0.71875 0
0.15625 0.71875 0
0.125 0.75 0
0.15625 0.75 0
0.15625 0.71875 0
0.1875 0.71875 0
0.15625 0.75 0
0.1875 0.75 0
0.1875 0.6875 0
0.21875 0.6875 0
0.1875 0.71875 0
0.21875 0.71875 0
0.21875 0.6875 0
0.25 0.6875 0
0.21875 0.71875 0
0.25 0.71875 0
0.1875 0.71875 0
0.21875 0.71875 0
0.1875 0.75 0
0.21875 0.75 0
0.21875 0.71875 0
0.25 0.71875 0
0.21875 0.75 0
0.25 0.75 0
0.25 0.5 0
0.28125 0.5 0
0.25 0.53125 0
0.28125 0.53125 0
0.28125 0.5 0
0.3125 0.5 0
0.28125 0.53125 0
0.3125 0.53125 0
0.25 0.53125 0
0.28125 0.53125 0
0.25 0.5625 0
0.28125 0.5625 0
0.28125 0.53125 0
0.3125 0.53125 0
0.28125 0.5625 0
0.3125 0.5625 0
0.3125 0.5 0
0.34375 0.5 0
0.3125 0.53125 0
0.34375 0.53125 0
0.34375 0.5 0
0.375 0.5 0
0.34375 0.53125 0
0.375 0.53125 0
0.3125 0.53125 0
0.34375 0.53125 0
0.3125 0.5625 0
0.34375 0.5625 0
0.34375 0.53125 0
0.375 0.53125 0
0.34375 0.5625 0
0.375 0.5625 0
0.25 0.5625 0
0.28125 0.5625 0
0.25 0.59375 0
0.28125 0.59375 0
0.28125 0.5625 0
0.3125 0.5625 0
0.28125 0.59375 0
0.3125 0.59375 0
0.25 0.59375 0
0.28125 0.59375 0
0.25 0.625 0
0.28125 0.625 0
0.28125 0.59375 0
0.3125 0.59375 0
0.28125 0.625 0
0.3125 0.625 0
0.3125 0.5625 0
0.34375 0.5625 0
0.3125 0.59375 0
0.34375 0.59375 0
0.34375 0.5625 0
0.375 0.5625 0
0.34375 0.59375 0
0.375 0.59375 0
0.3125 0.59375 0
0.34375 0.59375 0
0.3125 0.625 0
0.34375 0.625 0
0.34375 0.59375 0
0.375 0.59375 0
0.34375 0.625 0
0.375 0.625 0
0.375 0.5 0
0.40625 0.5 0
0.375 0.53125 0
0.40625 0.53125 0
0.40625 0.5 0
0.4375 0.5 0
0.40625 0.53125 0
0.4375 0.53125 0
0.375 0.53125 0
0.40625 0.53125 0
0.375 0.5625 0
0.40625 0.5625 0
0.40625 0.53125 0
0.4375 0.53125 0
0.40625 0.5625 0
0.4375 0.5625 0
0.4375 0.5 0
0.46875 0.5 0
0.4375 0.53125 0
0.46875 0.53125 0
0.46875 0.5 0
0.5 0.5 0
0.46875 0.53125 0
0.5 0.53125 0
0.4375 0.53125 0
0.46875 0.53125 0
0.4375 0.5625 0
0.46875 0.5625 0
0.46875 0.53125 0
0.5 0.53125 0
0.46875 0.5625 0
0.5 0.5625 0
0.375 0.5625 0
0.40625 0.5625 0
0.375 0.59375 0
0.40625 0.59375 0
0.40625 0.5625 0
0.4375 0.5625 0
0.40625 0.59375 0
0.4375 0.59375 0
0.375 0.59375 0
0.40625 0.59375 0
0.375 0.625 0
0.40625 0.625 0
0.40625 0.59375 0
0.4375 0.59375 0
0.40625 0.625 0
0.4375 0.625 0
0.4375 0.5625 0
0.46875 0.5625 0
0.4375 0.59375 0
0.46875 0.59375 0
0.46875 0.5625 0
0.5 0.5625 0
0.46875 0.59375 0
0.5 0.59375 0
0.4375 0.59375 0
0.46875 0.59375 0
0.4375 0.625 0
0.46875 0.625 0
0.46875 0.59375 0
0.5 0.59375 0
0.46875 0.625 0
0.5 0.625 0
0.25 0.625 0
0.28125 0.625 0
0.25 0.65625 0
0.28125 0.65625 0
0.28125 0.625 0
0.3125 0.625 0
0.28125 0.65625 0
0.3125 0.65625 0
0.25 0.65625 0
0.28125 0.65625 0
0.25 0.6875 0
0.28125 0.6875 0
0.28125 0.65625 0
0.3125 0.65625 0
0.28125 0.6875 0
0.3125 0.6875 0
0.3125 0.625 0
0.34375 0.625 0
0.3125 0.65625 0
0.34375 0.65625 0
0.34375 0.625 0
0.375 0.625 0
0.34375 0.65625 0
0.375 0.65625 0
0.3125 0.65625 0
0.34375 0.65625 0
0.3125 0.6875 0
0.34375 0.6875 0
0.34375 0.65625 0
0.375 0.65625 0
0.34375 0.6875 0
0.375 0.6875 0
0.25 0.6875 0
0.28125 0.6875 0
0.25 0.71875 0
0.28125 0.71875 0
0.28125 0.6875 0
0.3125 0.6875 0
0.28125 0.71875 0
0.3125 0.71875 0
0.25 0.71875 0
0.28125 0.71875 0
0.25 0.75 0
0.28125 0.75 0
0.28125 0.71875 0
0.3125 0.71875 0
0.28125 0.75 0
0.3125 0.75 0
0.3125 0.6875 0
0.34375 0.6875 0
0.3125 0.71875 0
0.34375 0.71875 0
0.34375 0.6875 0
0.375 0.6875 0
0.34375 0.71875 0
0.375 0.71875 0
0.3125 0.71875 0
0.34375 0.71875 0
0.3125 0.75 0
0.34375 0.75 0
0.34375 0.71875 0
0.375 0.71875 0
0.34375 0.75 0
0.375 0.75 0
0.375 0.625 0
0.40625 0.625 0
0.375 0.65625 0
0.40625 0.65625 0
0.40625 0.625 0
0.4375 0.625 0
0.40625 0.65625 0
0.4375 0.65625 0
0.375 0.65625 0
0.40625 0.65625 0
0.375 0.6875 0
0.40625 0.6875 0
0.40625 0.65625 0
0.4375 0.65625 0
0.40625 0.6875 0
0.4375 0.6875 0
0.4375 0.625 0
0.46875 0.625 0
0.4375 0.65625 0
0.46875 0.65625 0
0.46875 0.625 0
0.5 0.625 0
0.46875 0.65625 0
0.5 0.65625 0
0.4375 0.65625 0
0.46875 0.65625 0
0.4375 0.6875 0
0.46875 0.6875 0
0.46875 0.65625 0
0.5 0.65625 0
0.46875 0.6875 0
0.5 0.6875 0
0.375 0.6875 0
0.40625 0.6875 0
0.375 0.71875 0
0.40625 0.71875 0
0.40625 0.6875 0
0.4375 0.6875 0
0.40625 0.71875 0
0.4375 0.71875 0
0.375 0.71875 0
0.40625 0.71875 0
0.375 0.75 0
0.40625 0.75 0
0.40625 0.71875 0
0.4375 0.71875 0
0.40625 0.75 0
0.4375 0.75 0
0.4375 0.6875 0
0.46875 0.6875 0
0.4375 0.71875 0
0.46875 0.71875 0
0.46875 0.6875 0
0.5 0.6875 0
0.46875 0.71875 0
0.5 0.71875 0
0.4375 0.71875 0
0.46875 0.71875 0
0.4375 0.75 0
0.46875 0.75 0
0.46875 0.71875 0
0.5 0.71875 0
0.46875 0.75 0
0.5 0.75 0
0 0.75 0
0.03125 0.75 0
0 0.78125 0
0.03125 0.78125 0
0.03125 0.75 0
0.0625 0.75 0
0.03125 0.78125 0
0.0625 0.78125 0
0 0.78125 0
0.03125 0.78125 0
0 0.8125 0
0.03125 0.8125 0
0.03125 0.78125 0
0.0625 0.78125 0
0.03125 0.8125 0
0.0625 0.8125 0
0.0625 0.75 0
0.09375 0.75 0
0.0625 0.78125 0
0.09375 0.78125 0
0.09375 0.75 0
0.125 0.75 0
0.09375 0.78125 0
0.125 0.78125 0
0.0625 0.78125 0
0.09375 0.78125 0
0.0625 0.8125 0
0.09375 0.8125 0
0.09375 0.78125 0
0.125 0.78125 0
0.09375 0.8125 0
0.125 0.8125 0
0 0.8125 0
0.03125 0.8125 0
0 0.84375 0
0.03125 0.84375 0
0.03125 0.8125 0
0.0625 0.8125 0
0.03125 0.84375 0
0.0625 0.84375 0
0 0.84375 0
0.03125 0.84375 0
0 0.875 0
0.03125 0.875 0
0.03125 0.84375 0
0.0625 0.84375 0
0.03125 0.875 0
0.0625 0.875 0
0.0625 0.8125 0
0.09375 0.8125 0
0.0625 0.84375 0
0.09375 0.84375 0
0.09375 0.8125 0
0.125 0.8125 0
0.09375 0.84375 0
0.125 0.84375 0
0.0625 0.84375 0
0.09375 0.84375 0
0.0625 0.875 0
0.09375 0.875 0
0.09375 0.84375 0
0.125 0.84375 0
0.09375 0.875 0
0.125 0.875 0
0.125 0.75 0
0.15625 0.75 0
0.125 0.78125 0
0.15625 0.78125 0
0.15625 0.75 0
0.1875 0.75 0
0.15625 0.78125 0
0.1875 0.78125 0
0.125 0.78125 0
0.15625 0.78125 0
0.125 0.8125 0
0.15625 0.8125 0
0.15625 0.78125 0
0.1875 0.78125 0
0.15625 0.8125 0
0.1875 0.8125 0
0.1875 0.75 0
0.21875 0.75 0
0.1875 0.78125 0
0.21875 0.78125 0
0.21875 0.75 0
0.25 0.75 0
0.21875 0.78125 0
0.25 0.78125 0
0.1875 0.78125 0
0.21875 0.78125 0
0.1875 0.8125 0
0.21875 0.8125 0
0.21875 0.78125 0
0.25 0.78125 0
0.21875 0.8125 0
0.25 0.8125 0
0.125 0.8125 0
0.15625 0.8125 0
0.125 0.84375 0
0.15625 0.84375 0
0.15625 0.8125 0
[...]
POINT_DATA 4096
SCALARS x_dis double 1
LOOKUP_TABLE default
-9.25581e-14 -7.59733e-14 2.02677e-13 2.6994e-13 -7.59733e-14 -6.10964e-14 2.6994e-13 2.49885e-13 2.02677e-13 2.6994e-13 -1.16306e-12 -9.76103e-13 2.6994e-13 2.49885e-13 -9.76103e-13 -9.37157e-13 -6.10964e-14 -6.93021e-14 2.49885e-13 2.64702e-13 -6.93021e-14 -7.26944e-14 2.64702e-13 2.76908e-13 2.49885e-13 2.64702e-13 -9.37157e-13 -9.73413e-13 2.64702e-13 2.76908e-13 -9.73413e-13 -1.02912e-12 -1.16306e-12 -9.76103e-13 2.13653e-12 3.10186e-12 -9.76103e-13 -9.37157e-13 3.10186e-12 3.53438e-12 2.13653e-12 3.10186e-12 -1.24697e-11 -1.00977e-11 3.10186e-12 3.53438e-12 -1.00977e-11 -1.20312e-11 -9.37157e-13 -9.73413e-13 3.53438e-12 3.42027e-12 -9.73413e-13 -1.02912e-12 3.42027e-12 3.58891e-12 3.53438e-12 3.42027e-12 -1.20312e-11 -1.1459e-11 3.42027e-12 3.58891e-12 -1.1459e-11 -1.21516e-11 -7.26944e-14 -6.89772e-14 2.76908e-13 2.6577e-13 -6.89772e-14 -7.08227e-14 2.6577e-13 2.70598e-13 2.76908e-13 2.6577e-13 -1.02912e-12 -9.8663e-13 2.6577e-13 2.70598e-13 -9.8663e-13 -1.00463e-12 -7.08227e-14 -7.02299e-14 2.70598e-13 2.69327e-13 -7.02299e-14 -7.03371e-14 2.69327e-13 2.69453e-13 2.70598e-13 2.69327e-13 -1.00463e-12 -1.00016e-12 2.69327e-13 2.69453e-13 -1.00016e-12 -1.00033e-12 -1.02912e-12 -9.8663e-13 3.58891e-12 3.48638e-12 -9.8663e-13 -1.00463e-12 3.48638e-12 3.5218e-12 3.58891e-12 3.48638e-12 -1.21516e-11 -1.17946e-11 3.48638e-12 3.5218e-12 -1.17946e-11 -1.19099e-11 -1.00463e-12 -1.00016e-12 3.5218e-12 3.51589e-12 -1.00016e-12 -1.00033e-12 3.51589e-12 3.51457e-12 3.5218e-12 3.51589e-12 -1.19099e-11 -1.18953e-11 3.51589e-12 3.51457e-12 -1.18953e-11 -1.18873e-11 -1.24697e-11 -1.00977e-11 1.1929e-11 2.58006e-11 -1.00977e-11 -1.20312e-11 2.58006e-11 4.09722e-11 1.1929e-11 2.58006e-11 -9.93791e-11 -6.02368e-11 2.58006e-11 4.09722e-11 -6.02368e-11 -1.15932e-10 -1.20312e-11 -1.1459e-11 4.09722e-11 3.5598e-11 -1.1459e-11 -1.21516e-11 3.5598e-11 3.71859e-11 4.09722e-11 3.5598e-11 -1.15932e-10 -9.91385e-11 3.5598e-11 3.71859e-11 -9.91385e-11 -1.03601e-10 -9.93791e-11 -6.02368e-11 -1.71666e-10 2.45724e-11 -6.02368e-11 -1.15932e-10 2.45724e-11 3.07827e-10 -1.71666e-10 2.45724e-11 -2.40278e-10 5.40561e-10 2.45724e-11 3.07827e-10 5.40561e-10 -3.60975e-10 -1.15932e-10 -9.91385e-11 3.07827e-10 2.15668e-10 -9.91385e-11 -1.03601e-10 2.15668e-10 2.15471e-10 3.07827e-10 2.15668e-10 -3.60975e-10 -1.79427e-10 2.15668e-10 2.15471e-10 -1.79427e-10 -1.46162e-10 -1.21516e-11 -1.17946e-11 3.71859e-11 3.66413e-11 -1.17946e-11 -1.19099e-11 3.66413e-11 3.66704e-11 3.71859e-11 3.66413e-11 -1.03601e-10 -1.02525e-10 3.66413e-11 3.66704e-11 -1.02525e-10 -1.02423e-10 -1.19099e-11 -1.18953e-11 3.66704e-11 3.67283e-11 -1.18953e-11 -1.18873e-11 3.67283e-11 3.66862e-11 3.66704e-11 3.67283e-11 -1.02423e-10 -1.02645e-10 3.67283e-11 3.66862e-11 -1.02645e-10 -1.02514e-10 -1.03601e-10 -1.02525e-10 2.15471e-10 2.21151e-10 -1.02525e-10 -1.02423e-10 2.21151e-10 2.16909e-10 2.15471e-10 2.21151e-10 -1.46162e-10 -1.71865e-10 2.21151e-10 2.16909e-10 -1.71865e-10 -1.60757e-10 -1.02423e-10 -1.02645e-10 2.16909e-10 2.1846e-10 -1.02645e-10 -1.02514e-10 2.1846e-10 2.17992e-10 2.16909e-10 2.1846e-10 -1.60757e-10 -1.63953e-10 2.1846e-10 2.17992e-10 -1.63953e-10 -1.63184e-10 -7.03371e-14 -7.0355e-14 2.69453e-13 2.69543e-13 -7.0355e-14 -7.03265e-14 2.69543e-13 2.69468e-13 2.69453e-13 2.69543e-13 -1.00033e-12 -1.00086e-12 2.69543e-13 2.69468e-13 -1.00086e-12 -1.00049e-12 -7.03265e-14 -7.03414e-14 2.69468e-13 2.69506e-13 -7.03414e-14 -7.03435e-14 2.69506e-13 2.69494e-13 2.69468e-13 2.69506e-13 -1.00049e-12 -1.00067e-12 2.69506e-13 2.69494e-13 -1.00067e-12 -1.0006e-12 -1.00033e-12 -1.00086e-12 3.51457e-12 3.51607e-12 -1.00086e-12 -1.00049e-12 3.51607e-12 3.51533e-12 3.51457e-12 3.51607e-12 -1.18873e-11 -1.18942e-11 3.51607e-12 3.51533e-12 -1.18942e-11 -1.18909e-11 -1.00049e-12 -1.00067e-12 3.51533e-12 3.51561e-12 -1.00067e-12 -1.0006e-12 3.51561e-12 3.51552e-12 3.51533e-12 3.51561e-12 -1.18909e-11 -1.18921e-11 3.51561e-12 3.51552e-12 -1.18921e-11 -1.18918e-11 -7.03435e-14 -7.03265e-14 2.69494e-13 2.69456e-13 -7.03265e-14 -7.02929e-14 2.69456e-13 2.69756e-13 2.69494e-13 2.69456e-13 -1.0006e-12 -1.00061e-12 2.69456e-13 2.69756e-13 -1.00061e-12 -1.00065e-12 -7.02929e-14 -7.05037e-14 2.69756e-13 2.68375e-13 -7.05037e-14 -7.54706e-14 2.68375e-13 2.69867e-13 2.69756e-13 2.68375e-13 -1.00065e-12 -1.00045e-12 2.68375e-13 2.69867e-13 -1.00045e-12 -1.00176e-12 -1.0006e-12 -1.00061e-12 3.51552e-12 3.51554e-12 -1.00061e-12 -1.00065e-12 3.51554e-12 3.51555e-12 3.51552e-12 3.51554e-12 -1.18918e-11 -1.18919e-11 3.51554e-12 3.51555e-12 -1.18919e-11 -1.18918e-11 -1.00065e-12 -1.00045e-12 3.51555e-12 3.51547e-12 -1.00045e-12 -1.00176e-12 3.51547e-12 3.51559e-12 3.51555e-12 3.51547e-12 -1.18918e-11 -1.18918e-11 3.51547e-12 3.51559e-12 -1.18918e-11 -1.18919e-11 -1.18873e-11 -1.18942e-11 3.66862e-11 3.67033e-11 -1.18942e-11 -1.18909e-11 3.67033e-11 3.66985e-11 3.66862e-11 3.67033e-11 -1.02514e-10 -1.02565e-10 3.67033e-11 3.66985e-11 -1.02565e-10 -1.0255e-10 -1.18909e-11 -1.18921e-11 3.66985e-11 3.66993e-11 -1.18921e-11 -1.18918e-11 3.66993e-11 3.66993e-11 3.66985e-11 3.66993e-11 -1.0255e-10 -1.02553e-10 3.66993e-11 3.66993e-11 -1.02553e-10 -1.02553e-10 -1.02514e-10 -1.02565e-10 2.17992e-10 2.18082e-10 -1.02565e-10 -1.0255e-10 2.18082e-10 2.18083e-10 2.17992e-10 2.18082e-10 -1.63184e-10 -1.6331e-10 2.18082e-10 2.18083e-10 -1.6331e-10 -1.63317e-10 -1.0255e-10 -1.02553e-10 2.18083e-10 2.18072e-10 -1.02553e-10 -1.02553e-10 2.18072e-10 2.18079e-10 2.18083e-10 2.18072e-10 -1.63317e-10 -1.63299e-10 2.18072e-10 2.18079e-10 -1.63299e-10 -1.63309e-10 -1.18918e-11 -1.18919e-11 3.66993e-11 3.66992e-11 -1.18919e-11 -1.18918e-11 3.66992e-11 3.66993e-11 3.66993e-11 3.66992e-11 -1.02553e-10 -1.02553e-10 3.66992e-11 3.66993e-11 -1.02553e-10 -1.02553e-10 -1.18918e-11 -1.18918e-11 3.66993e-11 3.66993e-11 -1.18918e-11 -1.18919e-11 3.66993e-11 3.66993e-11 3.66993e-11 3.66993e-11 -1.02553e-10 -1.02553e-10 3.66993e-11 3.66993e-11 -1.02553e-10 -1.02553e-10 -1.02553e-10 -1.02553e-10 2.18079e-10 2.18076e-10 -1.02553e-10 -1.02553e-10 2.18076e-10 2.18077e-10 2.18079e-10 2.18076e-10 -1.63309e-10 -1.63305e-10 2.18076e-10 2.18077e-10 -1.63305e-10 -1.63306e-10 -1.02553e-10 -1.02553e-10 2.18077e-10 2.18077e-10 -1.02553e-10 -1.02553e-10 2.18077e-10 2.18077e-10 2.18077e-10 2.18077e-10 -1.63306e-10 -1.63306e-10 2.18077e-10 2.18077e-10 -1.63306e-10 -1.63306e-10 -2.40278e-10 5.40561e-10 -7.08309e-09 -4.72784e-09 5.40561e-10 -3.60975e-10 -4.72784e-09 -1.16418e-09 -7.08309e-09 -4.72784e-09 1.11562e-08 2.46756e-08 -4.72784e-09 -1.16418e-09 2.46756e-08 1.60819e-08 -3.60975e-10 -1.79427e-10 -1.16418e-09 -1.87637e-09 -1.79427e-10 -1.46162e-10 -1.87637e-09 -2.16884e-09 -1.16418e-09 -1.87637e-09 1.60819e-08 1.6034e-08 -1.87637e-09 -2.16884e-09 1.6034e-08 1.70597e-08 1.11562e-08 2.46756e-08 -1.39993e-07 -1.13136e-07 2.46756e-08 1.60819e-08 -1.13136e-07 -9.00204e-08 -1.39993e-07 -1.13136e-07 2.52167e-07 4.06876e-07 -1.13136e-07 -9.00204e-08 4.06876e-07 4.25933e-07 1.60819e-08 1.6034e-08 -9.00204e-08 -8.49026e-08 1.6034e-08 1.70597e-08 -8.49026e-08 -9.12769e-08 -9.00204e-08 -8.49026e-08 4.25933e-07 3.93854e-07 -8.49026e-08 -9.12769e-08 3.93854e-07 4.00996e-07 -1.46162e-10 -1.71865e-10 -2.16884e-09 -2.01003e-09 -1.71865e-10 -1.60757e-10 -2.01003e-09 -2.06802e-09 -2.16884e-09 -2.01003e-09 1.70597e-08 1.66631e-08 -2.01003e-09 -2.06802e-09 1.66631e-08 1.67469e-08 -1.60757e-10 -1.63953e-10 -2.06802e-09 -2.05673e-09 -1.63953e-10 -1.63184e-10 -2.05673e-09 -2.05737e-09 -2.06802e-09 -2.05673e-09 1.67469e-08 1.67376e-08 -2.05673e-09 -2.05737e-09 1.67376e-08 1.67354e-08 1.70597e-08 1.66631e-08 -9.12769e-08 -8.95637e-08 1.66631e-08 1.67469e-08 -8.95637e-08 -8.976e-08 -9.12769e-08 -8.95637e-08 4.00996e-07 4.01363e-07 -8.95637e-08 -8.976e-08 4.01363e-07 4.00515e-07 1.67469e-08 1.67376e-08 -8.976e-08 -8.98427e-08 1.67376e-08 1.67354e-08 -8.98427e-08 -8.97842e-08 -8.976e-08 -8.98427e-08 4.00515e-07 4.00884e-07 -8.98427e-08 -8.97842e-08 4.00884e-07 4.00778e-07 2.52167e-07 4.06876e-07 -1.89067e-06 -1.25932e-06 4.06876e-07 4.25933e-07 -1.25932e-06 -1.46634e-06 -1.89067e-06 -1.25932e-06 1.30736e-06 1.33706e-06 -1.25932e-06 -1.46634e-06 1.33706e-06 3.78342e-06 4.25933e-07 3.93854e-07 -1.46634e-06 -1.32036e-06 3.93854e-07 4.00996e-07 -1.32036e-06 -1.38074e-06 -1.46634e-06 -1.32036e-06 3.78342e-06 3.42914e-06 -1.32036e-06 -1.38074e-06 3.42914e-06 3.33374e-06 1.30736e-06 1.33706e-06 -1.58177e-05 7.20571e-06 1.33706e-06 3.78342e-06 7.20571e-06 6.5489e-06 -1.58177e-05 7.20571e-06 -0.00011 -0.00011 7.20571e-06 6.5489e-06 -0.00011 -0.00011 3.78342e-06 3.42914e-06 6.5489e-06 5.85288e-06 3.42914e-06 3.33374e-06 5.85288e-06 6.04268e-06 6.5489e-06 5.85288e-06 -0.00011 -0.00011 5.85288e-06 6.04268e-06 -0.00011 -0.00011 4.00996e-07 4.01363e-07 -1.38074e-06 -1.37127e-06 4.01363e-07 4.00515e-07 -1.37127e-06 -1.37075e-06 -1.38074e-06 -1.37127e-06 3.33374e-06 3.39026e-06 -1.37127e-06 -1.37075e-06 3.39026e-06 3.37277e-06 4.00515e-07 4.00884e-07 -1.37075e-06 -1.37177e-06 4.00884e-07 4.00778e-07 -1.37177e-06 -1.37132e-06 -1.37075e-06 -1.37177e-06 3.37277e-06 3.3766e-06 -1.37177e-06 -1.37132e-06 3.3766e-06 3.37606e-06 3.33374e-06 3.39026e-06 6.04268e-06 6.01904e-06 3.39026e-06 3.37277e-06 6.01904e-06 6.01612e-06 6.04268e-06 6.01904e-06 -0.00011 -0.00011 6.01904e-06 6.01612e-06 -0.00011 -0.00011 3.37277e-06 3.3766e-06 6.01612e-06 6.019e-06 3.3766e-06 3.37606e-06 6.019e-06 6.01789e-06 6.01612e-06 6.019e-06 -0.00011 -0.00011 6.019e-06 6.01789e-06 -0.00011 -0.00011 -1.63184e-10 -1.6331e-10 -2.05737e-09 -2.05811e-09 -1.6331e-10 -1.63317e-10 -2.05811e-09 -2.05765e-09 -2.05737e-09 -2.05811e-09 1.67354e-08 1.6737e-08 -2.05811e-09 -2.05765e-09 1.6737e-08 1.67364e-08 -1.63317e-10 -1.63299e-10 -2.05765e-09 -2.05783e-09 -1.63299e-10 -1.63309e-10 -2.05783e-09 -2.05777e-09 -2.05765e-09 -2.05783e-09 1.67364e-08 1.67366e-08 -2.05783e-09 -2.05777e-09 1.67366e-08 1.67366e-08 1.67354e-08 1.6737e-08 -8.97842e-08 -8.98065e-08 1.6737e-08 1.67364e-08 -8.98065e-08 -8.98001e-08 -8.97842e-08 -8.98065e-08 4.00778e-07 4.008e-07 -8.98065e-08 -8.98001e-08 4.008e-07 4.00797e-07 1.67364e-08 1.67366e-08 -8.98001e-08 -8.98015e-08 1.67366e-08 1.67366e-08 -8.98015e-08 -8.98013e-08 -8.98001e-08 -8.98015e-08 4.00797e-07 4.00797e-07 -8.98015e-08 -8.98013e-08 4.00797e-07 4.00797e-07 -1.63309e-10 -1.63305e-10 -2.05777e-09 -2.05779e-09 -1.63305e-10 -1.63306e-10 -2.05779e-09 -2.05779e-09 -2.05777e-09 -2.05779e-09 1.67366e-08 1.67366e-08 -2.05779e-09 -2.05779e-09 1.67366e-08 1.67366e-08 -1.63306e-10 -1.63306e-10 -2.05779e-09 -2.05779e-09 -1.63306e-10 -1.63306e-10 -2.05779e-09 -2.05779e-09 -2.05779e-09 -2.05779e-09 1.67366e-08 1.67366e-08 -2.05779e-09 -2.05779e-09 1.67366e-08 1.67366e-08 1.67366e-08 1.67366e-08 -8.98013e-08 -8.98013e-08 1.67366e-08 1.67366e-08 -8.98013e-08 -8.98013e-08 -8.98013e-08 -8.98013e-08 4.00797e-07 4.00797e-07 -8.98013e-08 -8.98013e-08 4.00797e-07 4.00797e-07 1.67366e-08 1.67366e-08 -8.98013e-08 -8.98013e-08 1.67366e-08 1.67366e-08 -8.98013e-08 -8.98013e-08 -8.98013e-08 -8.98013e-08 4.00797e-07 4.00797e-07 -8.98013e-08 -8.98013e-08 4.00797e-07 4.00797e-07 4.00778e-07 4.008e-07 -1.37132e-06 -1.37146e-06 4.008e-07 4.00797e-07 -1.37146e-06 -1.37143e-06 -1.37132e-06 -1.37146e-06 3.37606e-06 3.37605e-06 -1.37146e-06 -1.37143e-06 3.37605e-06 3.37609e-06 4.00797e-07 4.00797e-07 -1.37143e-06 -1.37143e-06 4.00797e-07 4.00797e-07 -1.37143e-06 -1.37143e-06 -1.37143e-06 -1.37143e-06 3.37609e-06 3.37607e-06 -1.37143e-06 -1.37143e-06 3.37607e-06 3.37608e-06 3.37606e-06 3.37605e-06 6.01789e-06 6.01821e-06 3.37605e-06 3.37609e-06 6.01821e-06 6.01813e-06 6.01789e-06 6.01821e-06 -0.00011 -0.00011 6.01821e-06 6.01813e-06 -0.00011 -0.00011 3.37609e-06 3.37607e-06 6.01813e-06 6.01815e-06 3.37607e-06 3.37608e-06 6.01815e-06 6.01815e-06 6.01813e-06 6.01815e-06 -0.00011 -0.00011 6.01815e-06 6.01815e-06 -0.00011 -0.00011 4.00797e-07 4.00797e-07 -1.37143e-06 -1.37143e-06 4.00797e-07 4.00797e-07 -1.37143e-06 -1.37143e-06 -1.37143e-06 -1.37143e-06 3.37608e-06 3.37608e-06 -1.37143e-06 -1.37143e-06 3.37608e-06 3.37608e-06 4.00797e-07 4.00797e-07 -1.37143e-06 -1.37143e-06 4.00797e-07 4.00797e-07 -1.37143e-06 -1.37143e-06 -1.37143e-06 -1.37143e-06 3.37608e-06 3.37608e-06 -1.37143e-06 -1.37143e-06 3.37608e-06 3.37608e-06 3.37608e-06 3.37608e-06 6.01815e-06 6.01815e-06 3.37608e-06 3.37608e-06 6.01815e-06 6.01815e-06 6.01815e-06 6.01815e-06 -0.00011 -0.00011 6.01815e-06 6.01815e-06 -0.00011 -0.00011 3.37608e-06 3.37608e-06 6.01815e-06 6.01815e-06 3.37608e-06 3.37608e-06 6.01815e-06 6.01815e-06 6.01815e-06 6.01815e-06 -0.00011 -0.00011 6.01815e-06 6.01815e-06 -0.00011 -0.00011 -7.54706e-14 -1.54394e-13 2.69867e-13 2.89939e-13 -1.54394e-13 -1.38735e-13 2.89939e-13 2.88266e-13 2.69867e-13 2.89939e-13 -1.00176e-12 -1.00617e-12 2.89939e-13 2.88266e-13 -1.00617e-12 -1.00505e-12 -1.38735e-13 -1.42867e-13 2.88266e-13 2.88026e-13 -1.42867e-13 -1.42364e-13 2.88026e-13 2.88234e-13 2.88266e-13 2.88026e-13 -1.00505e-12 -1.00509e-12 2.88026e-13 2.88234e-13 -1.00509e-12 -1.0052e-12 -1.00176e-12 -1.00617e-12 3.51559e-12 3.51667e-12 -1.00617e-12 -1.00505e-12 3.51667e-12 3.51662e-12 3.51559e-12 3.51667e-12 -1.18919e-11 -1.18921e-11 3.51667e-12 3.51662e-12 -1.18921e-11 -1.18921e-11 -1.00505e-12 -1.00509e-12 3.51662e-12 3.51657e-12 -1.00509e-12 -1.0052e-12 3.51657e-12 3.51664e-12 3.51662e-12 3.51657e-12 -1.18921e-11 -1.18921e-11 3.51657e-12 3.51664e-12 -1.18921e-11 -1.18921e-11 -1.42364e-13 -1.4236e-13 2.88234e-13 2.88129e-13 -1.4236e-13 -1.42417e-13 2.88129e-13 2.88204e-13 2.88234e-13 2.88129e-13 -1.0052e-12 -1.00513e-12 2.88129e-13 2.88204e-13 -1.00513e-12 -1.00522e-12 -1.42417e-13 -1.42355e-13 2.88204e-13 2.88098e-13 -1.42355e-13 -1.4245e-13 2.88098e-13 2.88304e-13 2.88204e-13 2.88098e-13 -1.00522e-12 -1.00502e-12 2.88098e-13 2.88304e-13 -1.00502e-12 -1.00546e-12 -1.0052e-12 -1.00513e-12 3.51664e-12 3.5165e-12 -1.00513e-12 -1.00522e-12 3.5165e-12 3.51684e-12 3.51664e-12 3.5165e-12 -1.18921e-11 -1.18919e-11 3.5165e-12 3.51684e-12 -1.18919e-11 -1.18926e-11 -1.00522e-12 -1.00502e-12 3.51684e-12 3.51605e-12 -1.00502e-12 -1.00546e-12 3.51605e-12 3.51782e-12 3.51684e-12 3.51605e-12 -1.18926e-11 -1.18907e-11 3.51605e-12 3.51782e-12 -1.18907e-11 -1.18955e-11 -1.18919e-11 -1.18921e-11 3.66993e-11 3.66993e-11 -1.18921e-11 -1.18921e-11 3.66993e-11 3.66993e-11 3.66993e-11 3.66993e-11 -1.02553e-10 -1.02553e-10 3.66993e-11 3.66993e-11 -1.02553e-10 -1.02553e-10 -1.18921e-11 -1.18921e-11 3.66993e-11 3.66992e-11 -1.18921e-11 -1.18921e-11 3.66992e-11 3.66995e-11 3.66993e-11 3.66992e-11 -1.02553e-10 -1.02553e-10 3.66992e-11 3.66995e-11 -1.02553e-10 -1.02553e-10 -1.02553e-10 -1.02553e-10 2.18077e-10 2.18077e-10 -1.02553e-10 -1.02553e-10 2.18077e-10 2.18077e-10 2.18077e-10 2.18077e-10 -1.63306e-10 -1.63306e-10 2.18077e-10 2.18077e-10 -1.63306e-10 -1.63305e-10 -1.02553e-10 -1.02553e-10 2.18077e-10 2.18077e-10 -1.02553e-10 -1.02553e-10 2.18077e-10 2.18077e-10 2.18077e-10 2.18077e-10 -1.63305e-10 -1.63307e-10 2.18077e-10 2.18077e-10 -1.63307e-10 -1.63304e-10 -1.18921e-11 -1.18919e-11 3.66995e-11 3.66987e-11 -1.18919e-11 -1.18926e-11 3.66987e-11 3.67012e-11 3.66995e-11 3.66987e-11 -1.02553e-10 -1.02552e-10 3.66987e-11 3.67012e-11 -1.02552e-10 -1.02557e-10 -1.18926e-11 -1.18907e-11 3.67012e-11 3.66941e-11 -1.18907e-11 -1.18955e-11 3.66941e-11 3.67127e-11 3.67012e-11 3.66941e-11 -1.02557e-10 -1.02541e-10 3.66941e-11 3.67127e-11 -1.02541e-10 -1.02591e-10 -1.02553e-10 -1.02552e-10 2.18077e-10 2.18074e-10 -1.02552e-10 -1.02557e-10 2.18074e-10 2.18088e-10 2.18077e-10 2.18074e-10 -1.63304e-10 -1.63306e-10 2.18074e-10 2.18088e-10 -1.63306e-10 -1.63324e-10 -1.02557e-10 -1.02541e-10 2.18088e-10 2.18037e-10 -1.02541e-10 -1.02591e-10 2.18037e-10 2.18204e-10 2.18088e-10 2.18037e-10 -1.63324e-10 -1.63202e-10 2.18037e-10 2.18204e-10 -1.63202e-10 -1.63704e-10 -1.4245e-13 -1.42249e-13 2.88304e-13 2.87833e-13 -1.42249e-13 -1.42802e-13 2.87833e-13 2.89122e-13 2.88304e-13 2.87833e-13 -1.00546e-12 -1.00446e-12 2.87833e-13 2.89122e-13 -1.00446e-12 -1.00704e-12 -1.42802e-13 -1.4116e-13 2.89122e-13 2.85445e-13 -1.4116e-13 -1.45121e-13 2.85445e-13 2.94056e-13 2.89122e-13 2.85445e-13 -1.00704e-12 -1.00011e-12 2.85445e-13 2.94056e-13 -1.00011e-12 -1.0167e-12 -1.00546e-12 -1.00446e-12 3.51782e-12 3.5138e-12 -1.00446e-12 -1.00704e-12 3.5138e-12 3.52368e-12 3.51782e-12 3.5138e-12 -1.18955e-11 -1.18842e-11 3.5138e-12 3.52368e-12 -1.18842e-11 -1.19094e-11 -1.00704e-12 -1.00011e-12 3.52368e-12 3.49812e-12 -1.00011e-12 -1.0167e-12 3.49812e-12 3.5622e-12 3.52368e-12 3.49812e-12 -1.19094e-11 -1.18573e-11 3.49812e-12 3.5622e-12 -1.18573e-11 -1.1971e-11 -1.45121e-13 -1.39108e-13 2.94056e-13 2.79418e-13 -1.39108e-13 -1.42665e-13 2.79418e-13 2.92273e-13 2.94056e-13 2.79418e-13 -1.0167e-12 -9.84765e-13 2.79418e-13 2.92273e-13 -9.84765e-13 -1.07315e-12 -1.42665e-13 -1.4738e-13 2.92273e-13 2.74253e-13 -1.4738e-13 -1.04732e-13 2.74253e-13 3.37721e-13 2.92273e-13 2.74253e-13 -1.07315e-12 -8.694e-13 2.74253e-13 3.37721e-13 -8.694e-13 -6.21328e-13 -1.0167e-12 -9.84765e-13 3.5622e-12 3.41118e-12 -9.84765e-13 -1.07315e-12 3.41118e-12 3.78112e-12 3.5622e-12 3.41118e-12 -1.1971e-11 -1.16084e-11 3.41118e-12 3.78112e-12 -1.16084e-11 -1.34276e-11 -1.07315e-12 -8.694e-13 3.78112e-12 2.95169e-12 -8.694e-13 -6.21328e-13 2.95169e-12 3.5599e-12 3.78112e-12 2.95169e-12 -1.34276e-11 -8.72947e-12 2.95169e-12 3.5599e-12 -8.72947e-12 -4.70074e-12 -1.18955e-11 -1.18842e-11 3.67127e-11 3.66676e-11 -1.18842e-11 -1.19094e-11 3.66676e-11 3.67678e-11 3.67127e-11 3.66676e-11 -1.02591e-10 -1.02456e-10 3.66676e-11 3.67678e-11 -1.02456e-10 -1.02752e-10 -1.19094e-11 -1.18573e-11 3.67678e-11 3.65642e-11 -1.18573e-11 -1.1971e-11 3.65642e-11 3.70132e-11 3.67678e-11 3.65642e-11 -1.02752e-10 -1.02263e-10 3.65642e-11 3.70132e-11 -1.02263e-10 -1.03055e-10 -1.02591e-10 -1.02456e-10 2.18204e-10 2.17735e-10 -1.02456e-10 -1.02752e-10 2.17735e-10 2.18814e-10 2.18204e-10 2.17735e-10 -1.63704e-10 -1.62109e-10 2.17735e-10 2.18814e-10 -1.62109e-10 -1.66105e-10 -1.02752e-10 -1.02263e-10 2.18814e-10 2.16902e-10 -1.02263e-10 -1.03055e-10 2.16902e-10 2.20029e-10 2.18814e-10 2.16902e-10 -1.66105e-10 -1.58604e-10 2.16902e-10 2.20029e-10 -1.58604e-10 -1.70561e-10 -1.1971e-11 -1.16084e-11 3.70132e-11 3.55064e-11 -1.16084e-11 -1.34276e-11 3.55064e-11 4.14289e-11 3.70132e-11 3.55064e-11 -1.03055e-10 -9.92589e-11 3.55064e-11 4.14289e-11 -9.92589e-11 -1.24244e-10 -1.34276e-11 -8.72947e-12 4.14289e-11 2.53153e-11 -8.72947e-12 -4.70074e-12 2.53153e-11 3.27619e-11 4.14289e-11 2.53153e-11 -1.24244e-10 -5.46298e-11 2.53153e-11 3.27619e-11 -5.46298e-11 1.00191e-11 -1.03055e-10 -9.92589e-11 2.20029e-10 2.08263e-10 -9.92589e-11 -1.24244e-10 2.08263e-10 2.69224e-10 2.20029e-10 2.08263e-10 -1.70561e-10 -1.29796e-10 2.08263e-10 2.69224e-10 -1.29796e-10 -3.76237e-10 -1.24244e-10 -5.46298e-11 2.69224e-10 6.52331e-11 -5.46298e-11 1.00191e-11 6.52331e-11 1.81292e-10 2.69224e-10 6.52331e-11 -3.76237e-10 3.14175e-10 6.52331e-11 1.81292e-10 3.14175e-10 1.38263e-09 -1.63306e-10 -1.63306e-10 -2.05779e-09 -2.05779e-09 -1.63306e-10 -1.63305e-10 -2.05779e-09 -2.05779e-09 -2.05779e-09 -2.05779e-09 1.67366e-08 1.67366e-08 -2.05779e-09 -2.05779e-09 1.67366e-08 1.67366e-08 -1.63305e-10 -1.63307e-10 -2.05779e-09 -2.05778e-09 -1.63307e-10 -1.63304e-10 -2.05778e-09 -2.05779e-09 -2.05779e-09 -2.05778e-09 1.67366e-08 1.67366e-08 -2.05778e-09 -2.05779e-09 1.67366e-08 1.67366e-08 1.67366e-08 1.67366e-08 -8.98013e-08 -8.98013e-08 1.67366e-08 1.67366e-08 -8.98013e-08 -8.98013e-08 -8.98013e-08 -8.98013e-08 4.00797e-07 4.00797e-07 -8.98013e-08 -8.98013e-08 4.00797e-07 4.00797e-07 1.67366e-08 1.67366e-08 -8.98013e-08 -8.98013e-08 1.67366e-08 1.67366e-08 -8.98013e-08 -8.98013e-08 -8.98013e-08 -8.98013e-08 4.00797e-07 4.00797e-07 -8.98013e-08 -8.98013e-08 4.00797e-07 4.00797e-07 -1.63304e-10 -1.63306e-10 -2.05779e-09 -2.05779e-09 -1.63306e-10 -1.63324e-10 -2.05779e-09 -2.05775e-09 -2.05779e-09 -2.05779e-09 1.67366e-08 1.67366e-08 -2.05779e-09 -2.05775e-09 1.67366e-08