# vtk DataFile Version 3.0
#This file was generated by the deal.II library on 2022/11/2 at 18:40:09
ASCII
DATASET UNSTRUCTURED_GRID

POINTS 4096 double
0 0.5 0
0.03125 0.5 0
0 0.53125 0
0.03125 0.53125 0
0.03125 0.5 0
0.0625 0.5 0
0.03125 0.53125 0
0.0625 0.53125 0
0 0.53125 0
0.03125 0.53125 0
0 0.5625 0
0.03125 0.5625 0
0.03125 0.53125 0
0.0625 0.53125 0
0.03125 0.5625 0
0.0625 0.5625 0
0.0625 0.5 0
0.09375 0.5 0
0.0625 0.53125 0
0.09375 0.53125 0
0.09375 0.5 0
0.125 0.5 0
0.09375 0.53125 0
0.125 0.53125 0
0.0625 0.53125 0
0.09375 0.53125 0
0.0625 0.5625 0
0.09375 0.5625 0
0.09375 0.53125 0
0.125 0.53125 0
0.09375 0.5625 0
0.125 0.5625 0
0 0.5625 0
0.03125 0.5625 0
0 0.59375 0
0.03125 0.59375 0
0.03125 0.5625 0
0.0625 0.5625 0
0.03125 0.59375 0
0.0625 0.59375 0
0 0.59375 0
0.03125 0.59375 0
0 0.625 0
0.03125 0.625 0
0.03125 0.59375 0
0.0625 0.59375 0
0.03125 0.625 0
0.0625 0.625 0
0.0625 0.5625 0
0.09375 0.5625 0
0.0625 0.59375 0
0.09375 0.59375 0
0.09375 0.5625 0
0.125 0.5625 0
0.09375 0.59375 0
0.125 0.59375 0
0.0625 0.59375 0
0.09375 0.59375 0
0.0625 0.625 0
0.09375 0.625 0
0.09375 0.59375 0
0.125 0.59375 0
0.09375 0.625 0
0.125 0.625 0
0.125 0.5 0
0.15625 0.5 0
0.125 0.53125 0
0.15625 0.53125 0
0.15625 0.5 0
0.1875 0.5 0
0.15625 0.53125 0
0.1875 0.53125 0
0.125 0.53125 0
0.15625 0.53125 0
0.125 0.5625 0
0.15625 0.5625 0
0.15625 0.53125 0
0.1875 0.53125 0
0.15625 0.5625 0
0.1875 0.5625 0
0.1875 0.5 0
0.21875 0.5 0
0.1875 0.53125 0
0.21875 0.53125 0
0.21875 0.5 0
0.25 0.5 0
0.21875 0.53125 0
0.25 0.53125 0
0.1875 0.53125 0
0.21875 0.53125 0
0.1875 0.5625 0
0.21875 0.5625 0
0.21875 0.53125 0
0.25 0.53125 0
0.21875 0.5625 0
0.25 0.5625 0
0.125 0.5625 0
0.15625 0.5625 0
0.125 0.59375 0
0.15625 0.59375 0
0.15625 0.5625 0
0.1875 0.5625 0
0.15625 0.59375 0
0.1875 0.59375 0
0.125 0.59375 0
0.15625 0.59375 0
0.125 0.625 0
0.15625 0.625 0
0.15625 0.59375 0
0.1875 0.59375 0
0.15625 0.625 0
0.1875 0.625 0
0.1875 0.5625 0
0.21875 0.5625 0
0.1875 0.59375 0
0.21875 0.59375 0
0.21875 0.5625 0
0.25 0.5625 0
0.21875 0.59375 0
0.25 0.59375 0
0.1875 0.59375 0
0.21875 0.59375 0
0.1875 0.625 0
0.21875 0.625 0
0.21875 0.59375 0
0.25 0.59375 0
0.21875 0.625 0
0.25 0.625 0
0 0.625 0
0.03125 0.625 0
0 0.65625 0
0.03125 0.65625 0
0.03125 0.625 0
0.0625 0.625 0
0.03125 0.65625 0
0.0625 0.65625 0
0 0.65625 0
0.03125 0.65625 0
0 0.6875 0
0.03125 0.6875 0
0.03125 0.65625 0
0.0625 0.65625 0
0.03125 0.6875 0
0.0625 0.6875 0
0.0625 0.625 0
0.09375 0.625 0
0.0625 0.65625 0
0.09375 0.65625 0
0.09375 0.625 0
0.125 0.625 0
0.09375 0.65625 0
0.125 0.65625 0
0.0625 0.65625 0
0.09375 0.65625 0
0.0625 0.6875 0
0.09375 0.6875 0
0.09375 0.65625 0
0.125 0.65625 0
0.09375 0.6875 0
0.125 0.6875 0
0 0.6875 0
0.03125 0.6875 0
0 0.71875 0
0.03125 0.71875 0
0.03125 0.6875 0
0.0625 0.6875 0
0.03125 0.71875 0
0.0625 0.71875 0
0 0.71875 0
0.03125 0.71875 0
0 0.75 0
0.03125 0.75 0
0.03125 0.71875 0
0.0625 0.71875 0
0.03125 0.75 0
0.0625 0.75 0
0.0625 0.6875 0
0.09375 0.6875 0
0.0625 0.71875 0
0.09375 0.71875 0
0.09375 0.6875 0
0.125 0.6875 0
0.09375 0.71875 0
0.125 0.71875 0
0.0625 0.71875 0
0.09375 0.71875 0
0.0625 0.75 0
0.09375 0.75 0
0.09375 0.71875 0
0.125 0.71875 0
0.09375 0.75 0
0.125 0.75 0
0.125 0.625 0
0.15625 0.625 0
0.125 0.65625 0
0.15625 0.65625 0
0.15625 0.625 0
0.1875 0.625 0
0.15625 0.65625 0
0.1875 0.65625 0
0.125 0.65625 0
0.15625 0.65625 0
0.125 0.6875 0
0.15625 0.6875 0
0.15625 0.65625 0
0.1875 0.65625 0
0.15625 0.6875 0
0.1875 0.6875 0
0.1875 0.625 0
0.21875 0.625 0
0.1875 0.65625 0
0.21875 0.65625 0
0.21875 0.625 0
0.25 0.625 0
0.21875 0.65625 0
0.25 0.65625 0
0.1875 0.65625 0
0.21875 0.65625 0
0.1875 0.6875 0
0.21875 0.6875 0
0.21875 0.65625 0
0.25 0.65625 0
0.21875 0.6875 0
0.25 0.6875 0
0.125 0.6875 0
0.15625 0.6875 0
0.125 0.71875 0
0.15625 0.71875 0
0.15625 0.6875 0
0.1875 0.6875 0
0.15625 0.71875 0
0.1875 0.71875 0
0.125 0.71875 0
0.15625 0.71875 0
0.125 0.75 0
0.15625 0.75 0
0.15625 0.71875 0
0.1875 0.71875 0
0.15625 0.75 0
0.1875 0.75 0
0.1875 0.6875 0
0.21875 0.6875 0
0.1875 0.71875 0
0.21875 0.71875 0
0.21875 0.6875 0
0.25 0.6875 0
0.21875 0.71875 0
0.25 0.71875 0
0.1875 0.71875 0
0.21875 0.71875 0
0.1875 0.75 0
0.21875 0.75 0
0.21875 0.71875 0
0.25 0.71875 0
0.21875 0.75 0
0.25 0.75 0
0.25 0.5 0
0.28125 0.5 0
0.25 0.53125 0
0.28125 0.53125 0
0.28125 0.5 0
0.3125 0.5 0
0.28125 0.53125 0
0.3125 0.53125 0
0.25 0.53125 0
0.28125 0.53125 0
0.25 0.5625 0
0.28125 0.5625 0
0.28125 0.53125 0
0.3125 0.53125 0
0.28125 0.5625 0
0.3125 0.5625 0
0.3125 0.5 0
0.34375 0.5 0
0.3125 0.53125 0
0.34375 0.53125 0
0.34375 0.5 0
0.375 0.5 0
0.34375 0.53125 0
0.375 0.53125 0
0.3125 0.53125 0
0.34375 0.53125 0
0.3125 0.5625 0
0.34375 0.5625 0
0.34375 0.53125 0
0.375 0.53125 0
0.34375 0.5625 0
0.375 0.5625 0
0.25 0.5625 0
0.28125 0.5625 0
0.25 0.59375 0
0.28125 0.59375 0
0.28125 0.5625 0
0.3125 0.5625 0
0.28125 0.59375 0
0.3125 0.59375 0
0.25 0.59375 0
0.28125 0.59375 0
0.25 0.625 0
0.28125 0.625 0
0.28125 0.59375 0
0.3125 0.59375 0
0.28125 0.625 0
0.3125 0.625 0
0.3125 0.5625 0
0.34375 0.5625 0
0.3125 0.59375 0
0.34375 0.59375 0
0.34375 0.5625 0
0.375 0.5625 0
0.34375 0.59375 0
0.375 0.59375 0
0.3125 0.59375 0
0.34375 0.59375 0
0.3125 0.625 0
0.34375 0.625 0
0.34375 0.59375 0
0.375 0.59375 0
0.34375 0.625 0
0.375 0.625 0
0.375 0.5 0
0.40625 0.5 0
0.375 0.53125 0
0.40625 0.53125 0
0.40625 0.5 0
0.4375 0.5 0
0.40625 0.53125 0
0.4375 0.53125 0
0.375 0.53125 0
0.40625 0.53125 0
0.375 0.5625 0
0.40625 0.5625 0
0.40625 0.53125 0
0.4375 0.53125 0
0.40625 0.5625 0
0.4375 0.5625 0
0.4375 0.5 0
0.46875 0.5 0
0.4375 0.53125 0
0.46875 0.53125 0
0.46875 0.5 0
0.5 0.5 0
0.46875 0.53125 0
0.5 0.53125 0
0.4375 0.53125 0
0.46875 0.53125 0
0.4375 0.5625 0
0.46875 0.5625 0
0.46875 0.53125 0
0.5 0.53125 0
0.46875 0.5625 0
0.5 0.5625 0
0.375 0.5625 0
0.40625 0.5625 0
0.375 0.59375 0
0.40625 0.59375 0
0.40625 0.5625 0
0.4375 0.5625 0
0.40625 0.59375 0
0.4375 0.59375 0
0.375 0.59375 0
0.40625 0.59375 0
0.375 0.625 0
0.40625 0.625 0
0.40625 0.59375 0
0.4375 0.59375 0
0.40625 0.625 0
0.4375 0.625 0
0.4375 0.5625 0
0.46875 0.5625 0
0.4375 0.59375 0
0.46875 0.59375 0
0.46875 0.5625 0
0.5 0.5625 0
0.46875 0.59375 0
0.5 0.59375 0
0.4375 0.59375 0
0.46875 0.59375 0
0.4375 0.625 0
0.46875 0.625 0
0.46875 0.59375 0
0.5 0.59375 0
0.46875 0.625 0
0.5 0.625 0
0.25 0.625 0
0.28125 0.625 0
0.25 0.65625 0
0.28125 0.65625 0
0.28125 0.625 0
0.3125 0.625 0
0.28125 0.65625 0
0.3125 0.65625 0
0.25 0.65625 0
0.28125 0.65625 0
0.25 0.6875 0
0.28125 0.6875 0
0.28125 0.65625 0
0.3125 0.65625 0
0.28125 0.6875 0
0.3125 0.6875 0
0.3125 0.625 0
0.34375 0.625 0
0.3125 0.65625 0
0.34375 0.65625 0
0.34375 0.625 0
0.375 0.625 0
0.34375 0.65625 0
0.375 0.65625 0
0.3125 0.65625 0
0.34375 0.65625 0
0.3125 0.6875 0
0.34375 0.6875 0
0.34375 0.65625 0
0.375 0.65625 0
0.34375 0.6875 0
0.375 0.6875 0
0.25 0.6875 0
0.28125 0.6875 0
0.25 0.71875 0
0.28125 0.71875 0
0.28125 0.6875 0
0.3125 0.6875 0
0.28125 0.71875 0
0.3125 0.71875 0
0.25 0.71875 0
0.28125 0.71875 0
0.25 0.75 0
0.28125 0.75 0
0.28125 0.71875 0
0.3125 0.71875 0
0.28125 0.75 0
0.3125 0.75 0
0.3125 0.6875 0
0.34375 0.6875 0
0.3125 0.71875 0
0.34375 0.71875 0
0.34375 0.6875 0
0.375 0.6875 0
0.34375 0.71875 0
0.375 0.71875 0
0.3125 0.71875 0
0.34375 0.71875 0
0.3125 0.75 0
0.34375 0.75 0
0.34375 0.71875 0
0.375 0.71875 0
0.34375 0.75 0
0.375 0.75 0
0.375 0.625 0
0.40625 0.625 0
0.375 0.65625 0
0.40625 0.65625 0
0.40625 0.625 0
0.4375 0.625 0
0.40625 0.65625 0
0.4375 0.65625 0
0.375 0.65625 0
0.40625 0.65625 0
0.375 0.6875 0
0.40625 0.6875 0
0.40625 0.65625 0
0.4375 0.65625 0
0.40625 0.6875 0
0.4375 0.6875 0
0.4375 0.625 0
0.46875 0.625 0
0.4375 0.65625 0
0.46875 0.65625 0
0.46875 0.625 0
0.5 0.625 0
0.46875 0.65625 0
0.5 0.65625 0
0.4375 0.65625 0
0.46875 0.65625 0
0.4375 0.6875 0
0.46875 0.6875 0
0.46875 0.65625 0
0.5 0.65625 0
0.46875 0.6875 0
0.5 0.6875 0
0.375 0.6875 0
0.40625 0.6875 0
0.375 0.71875 0
0.40625 0.71875 0
0.40625 0.6875 0
0.4375 0.6875 0
0.40625 0.71875 0
0.4375 0.71875 0
0.375 0.71875 0
0.40625 0.71875 0
0.375 0.75 0
0.40625 0.75 0
0.40625 0.71875 0
0.4375 0.71875 0
0.40625 0.75 0
0.4375 0.75 0
0.4375 0.6875 0
0.46875 0.6875 0
0.4375 0.71875 0
0.46875 0.71875 0
0.46875 0.6875 0
0.5 0.6875 0
0.46875 0.71875 0
0.5 0.71875 0
0.4375 0.71875 0
0.46875 0.71875 0
0.4375 0.75 0
0.46875 0.75 0
0.46875 0.71875 0
0.5 0.71875 0
0.46875 0.75 0
0.5 0.75 0
0 0.75 0
0.03125 0.75 0
0 0.78125 0
0.03125 0.78125 0
0.03125 0.75 0
0.0625 0.75 0
0.03125 0.78125 0
0.0625 0.78125 0
0 0.78125 0
0.03125 0.78125 0
0 0.8125 0
0.03125 0.8125 0
0.03125 0.78125 0
0.0625 0.78125 0
0.03125 0.8125 0
0.0625 0.8125 0
0.0625 0.75 0
0.09375 0.75 0
0.0625 0.78125 0
0.09375 0.78125 0
0.09375 0.75 0
0.125 0.75 0
0.09375 0.78125 0
0.125 0.78125 0
0.0625 0.78125 0
0.09375 0.78125 0
0.0625 0.8125 0
0.09375 0.8125 0
0.09375 0.78125 0
0.125 0.78125 0
0.09375 0.8125 0
0.125 0.8125 0
0 0.8125 0
0.03125 0.8125 0
0 0.84375 0
0.03125 0.84375 0
0.03125 0.8125 0
0.0625 0.8125 0
0.03125 0.84375 0
0.0625 0.84375 0
0 0.84375 0
0.03125 0.84375 0
0 0.875 0
0.03125 0.875 0
0.03125 0.84375 0
0.0625 0.84375 0
0.03125 0.875 0
0.0625 0.875 0
0.0625 0.8125 0
0.09375 0.8125 0
0.0625 0.84375 0
0.09375 0.84375 0
0.09375 0.8125 0
0.125 0.8125 0
0.09375 0.84375 0
0.125 0.84375 0
0.0625 0.84375 0
0.09375 0.84375 0
0.0625 0.875 0
0.09375 0.875 0
0.09375 0.84375 0
0.125 0.84375 0
0.09375 0.875 0
0.125 0.875 0
0.125 0.75 0
0.15625 0.75 0
0.125 0.78125 0
0.15625 0.78125 0
0.15625 0.75 0
0.1875 0.75 0
0.15625 0.78125 0
0.1875 0.78125 0
0.125 0.78125 0
0.15625 0.78125 0
0.125 0.8125 0
0.15625 0.8125 0
0.15625 0.78125 0
0.1875 0.78125 0
0.15625 0.8125 0
0.1875 0.8125 0
0.1875 0.75 0
0.21875 0.75 0
0.1875 0.78125 0
0.21875 0.78125 0
0.21875 0.75 0
0.25 0.75 0
0.21875 0.78125 0
0.25 0.78125 0
0.1875 0.78125 0
0.21875 0.78125 0
0.1875 0.8125 0
0.21875 0.8125 0
0.21875 0.78125 0
0.25 0.78125 0
0.21875 0.8125 0
0.25 0.8125 0
0.125 0.8125 0
0.15625 0.8125 0
0.125 0.84375 0
0.15625 0.84375 0
0.15625 0.8125 0
[...]
POINT_DATA 4096
SCALARS x_dis double 1
LOOKUP_TABLE default
-8.73639e-15 -1.8146e-15 -3.88029e-14 -1.15363e-14 -1.8146e-15 -1.27595e-14 -1.15363e-14 3.07402e-14 -3.88029e-14 -1.15363e-14 1.93678e-14 1.36072e-13 -1.15363e-14 3.07402e-14 1.36072e-13 -2.56169e-14 -1.27595e-14 -7.90014e-15 3.07402e-14 9.50006e-15 -7.90014e-15 -9.40873e-15 9.50006e-15 1.43276e-14 3.07402e-14 9.50006e-15 -2.56169e-14 3.89287e-14 9.50006e-15 1.43276e-14 3.89287e-14 2.83132e-14 1.93678e-14 1.36072e-13 -1.14428e-12 -7.5752e-13 1.36072e-13 -2.56169e-14 -7.5752e-13 -1.87996e-13 -1.14428e-12 -7.5752e-13 2.23809e-12 4.11956e-12 -7.5752e-13 -1.87996e-13 4.11956e-12 2.06669e-12 -2.56169e-14 3.89287e-14 -1.87996e-13 -4.54948e-13 3.89287e-14 2.83132e-14 -4.54948e-13 -4.24092e-13 -1.87996e-13 -4.54948e-13 2.06669e-12 2.76065e-12 -4.54948e-13 -4.24092e-13 2.76065e-12 2.76416e-12 -9.40873e-15 -9.03616e-15 1.43276e-14 1.39965e-14 -9.03616e-15 -8.97314e-15 1.39965e-14 1.30876e-14 1.43276e-14 1.39965e-14 2.83132e-14 2.6188e-14 1.39965e-14 1.30876e-14 2.6188e-14 3.03155e-14 -8.97314e-15 -9.10349e-15 1.30876e-14 1.38472e-14 -9.10349e-15 -9.00588e-15 1.38472e-14 1.34052e-14 1.30876e-14 1.38472e-14 3.03155e-14 2.7671e-14 1.38472e-14 1.34052e-14 2.7671e-14 2.90313e-14 2.83132e-14 2.6188e-14 -4.24092e-13 -4.06067e-13 2.6188e-14 3.03155e-14 -4.06067e-13 -4.27948e-13 -4.24092e-13 -4.06067e-13 2.76416e-12 2.66755e-12 -4.06067e-13 -4.27948e-13 2.66755e-12 2.74337e-12 3.03155e-14 2.7671e-14 -4.27948e-13 -4.15348e-13 2.7671e-14 2.90313e-14 -4.15348e-13 -4.21334e-13 -4.27948e-13 -4.15348e-13 2.74337e-12 2.7064e-12 -4.15348e-13 -4.21334e-13 2.7064e-12 2.72202e-12 2.23809e-12 4.11956e-12 -2.34491e-11 -1.83663e-11 4.11956e-12 2.06669e-12 -1.83663e-11 -1.19791e-11 -2.34491e-11 -1.83663e-11 5.56908e-11 8.33616e-11 -1.83663e-11 -1.19791e-11 8.33616e-11 6.26617e-11 2.06669e-12 2.76065e-12 -1.19791e-11 -1.43864e-11 2.76065e-12 2.76416e-12 -1.43864e-11 -1.46555e-11 -1.19791e-11 -1.43864e-11 6.26617e-11 6.72794e-11 -1.43864e-11 -1.46555e-11 6.72794e-11 6.91804e-11 5.56908e-11 8.33616e-11 -4.03352e-10 -3.35395e-10 8.33616e-11 6.26617e-11 -3.35395e-10 -2.85195e-10 -4.03352e-10 -3.35395e-10 9.85817e-10 1.35557e-09 -3.35395e-10 -2.85195e-10 1.35557e-09 1.25403e-09 6.26617e-11 6.72794e-11 -2.85195e-10 -2.93594e-10 6.72794e-11 6.91804e-11 -2.93594e-10 -3.06314e-10 -2.85195e-10 -2.93594e-10 1.25403e-09 1.22231e-09 -2.93594e-10 -3.06314e-10 1.22231e-09 1.26887e-09 2.76416e-12 2.66755e-12 -1.46555e-11 -1.4151e-11 2.66755e-12 2.74337e-12 -1.4151e-11 -1.45023e-11 -1.46555e-11 -1.4151e-11 6.91804e-11 6.73585e-11 -1.4151e-11 -1.45023e-11 6.73585e-11 6.83713e-11 2.74337e-12 2.7064e-12 -1.45023e-11 -1.43411e-11 2.7064e-12 2.72202e-12 -1.43411e-11 -1.44054e-11 -1.45023e-11 -1.43411e-11 6.83713e-11 6.79586e-11 -1.43411e-11 -1.44054e-11 6.79586e-11 6.81051e-11 6.91804e-11 6.73585e-11 -3.06314e-10 -2.97545e-10 6.73585e-11 6.83713e-11 -2.97545e-10 -3.01954e-10 -3.06314e-10 -2.97545e-10 1.26887e-09 1.24391e-09 -2.97545e-10 -3.01954e-10 1.24391e-09 1.25355e-09 6.83713e-11 6.79586e-11 -3.01954e-10 -3.00309e-10 6.79586e-11 6.81051e-11 -3.00309e-10 -3.00849e-10 -3.01954e-10 -3.00309e-10 1.25355e-09 1.25053e-09 -3.00309e-10 -3.00849e-10 1.25053e-09 1.25134e-09 -9.00588e-15 -9.05976e-15 1.34052e-14 1.36162e-14 -9.05976e-15 -9.03462e-15 1.36162e-14 1.35281e-14 1.34052e-14 1.36162e-14 2.90313e-14 2.8432e-14 1.36162e-14 1.35281e-14 2.8432e-14 2.86667e-14 -9.03462e-15 -9.04541e-15 1.35281e-14 1.35605e-14 -9.04541e-15 -9.03806e-15 1.35605e-14 1.35537e-14 1.35281e-14 1.35605e-14 2.86667e-14 2.85834e-14 1.35605e-14 1.35537e-14 2.85834e-14 2.86085e-14 2.90313e-14 2.8432e-14 -4.21334e-13 -4.18877e-13 2.8432e-14 2.86667e-14 -4.18877e-13 -4.19781e-13 -4.21334e-13 -4.18877e-13 2.72202e-12 2.71621e-12 -4.18877e-13 -4.19781e-13 2.71621e-12 2.71817e-12 2.86667e-14 2.85834e-14 -4.19781e-13 -4.19477e-13 2.85834e-14 2.86085e-14 -4.19477e-13 -4.1957e-13 -4.19781e-13 -4.19477e-13 2.71817e-12 2.71757e-12 -4.19477e-13 -4.1957e-13 2.71757e-12 2.71773e-12 -9.03806e-15 -9.06031e-15 1.35537e-14 1.35363e-14 -9.06031e-15 -8.96922e-15 1.35363e-14 1.3615e-14 1.35537e-14 1.35363e-14 2.86085e-14 2.86085e-14 1.35363e-14 1.3615e-14 2.86085e-14 2.85902e-14 -8.96922e-15 -9.14593e-15 1.3615e-14 1.34125e-14 -9.14593e-15 -1.09284e-14 1.34125e-14 1.3112e-14 1.3615e-14 1.34125e-14 2.85902e-14 2.86331e-14 1.34125e-14 1.3112e-14 2.86331e-14 2.82572e-14 2.86085e-14 2.86085e-14 -4.1957e-13 -4.19547e-13 2.86085e-14 2.85902e-14 -4.19547e-13 -4.19542e-13 -4.1957e-13 -4.19547e-13 2.71773e-12 2.71769e-12 -4.19547e-13 -4.19542e-13 2.71769e-12 2.7177e-12 2.85902e-14 2.86331e-14 -4.19542e-13 -4.19569e-13 2.86331e-14 2.82572e-14 -4.19569e-13 -4.19505e-13 -4.19542e-13 -4.19569e-13 2.7177e-12 2.71771e-12 -4.19569e-13 -4.19505e-13 2.71771e-12 2.71768e-12 2.72202e-12 2.71621e-12 -1.44054e-11 -1.43828e-11 2.71621e-12 2.71817e-12 -1.43828e-11 -1.43899e-11 -1.44054e-11 -1.43828e-11 6.81051e-11 6.8059e-11 -1.43828e-11 -1.43899e-11 6.8059e-11 6.80721e-11 2.71817e-12 2.71757e-12 -1.43899e-11 -1.43879e-11 2.71757e-12 2.71773e-12 -1.43879e-11 -1.43884e-11 -1.43899e-11 -1.43879e-11 6.80721e-11 6.80687e-11 -1.43879e-11 -1.43884e-11 6.80687e-11 6.80695e-11 6.81051e-11 6.8059e-11 -3.00849e-10 -3.00693e-10 6.8059e-11 6.80721e-11 -3.00693e-10 -3.00733e-10 -3.00849e-10 -3.00693e-10 1.25134e-09 1.25115e-09 -3.00693e-10 -3.00733e-10 1.25115e-09 1.25119e-09 6.80721e-11 6.80687e-11 -3.00733e-10 -3.00724e-10 6.80687e-11 6.80695e-11 -3.00724e-10 -3.00726e-10 -3.00733e-10 -3.00724e-10 1.25119e-09 1.25118e-09 -3.00724e-10 -3.00726e-10 1.25118e-09 1.25118e-09 2.71773e-12 2.71769e-12 -1.43884e-11 -1.43883e-11 2.71769e-12 2.7177e-12 -1.43883e-11 -1.43883e-11 -1.43884e-11 -1.43883e-11 6.80695e-11 6.80693e-11 -1.43883e-11 -1.43883e-11 6.80693e-11 6.80693e-11 2.7177e-12 2.71771e-12 -1.43883e-11 -1.43883e-11 2.71771e-12 2.71768e-12 -1.43883e-11 -1.43883e-11 -1.43883e-11 -1.43883e-11 6.80693e-11 6.80694e-11 -1.43883e-11 -1.43883e-11 6.80694e-11 6.80693e-11 6.80695e-11 6.80693e-11 -3.00726e-10 -3.00726e-10 6.80693e-11 6.80693e-11 -3.00726e-10 -3.00726e-10 -3.00726e-10 -3.00726e-10 1.25118e-09 1.25118e-09 -3.00726e-10 -3.00726e-10 1.25118e-09 1.25118e-09 6.80693e-11 6.80694e-11 -3.00726e-10 -3.00726e-10 6.80694e-11 6.80693e-11 -3.00726e-10 -3.00726e-10 -3.00726e-10 -3.00726e-10 1.25118e-09 1.25118e-09 -3.00726e-10 -3.00726e-10 1.25118e-09 1.25118e-09 9.85817e-10 1.35557e-09 -6.00563e-09 -4.96175e-09 1.35557e-09 1.25403e-09 -4.96175e-09 -5.01959e-09 -6.00563e-09 -4.96175e-09 1.38241e-08 1.7445e-08 -4.96175e-09 -5.01959e-09 1.7445e-08 1.94287e-08 1.25403e-09 1.22231e-09 -5.01959e-09 -4.74269e-09 1.22231e-09 1.26887e-09 -4.74269e-09 -4.99646e-09 -5.01959e-09 -4.74269e-09 1.94287e-08 1.78605e-08 -4.74269e-09 -4.99646e-09 1.78605e-08 1.85159e-08 1.38241e-08 1.7445e-08 -7.51143e-08 -5.4008e-08 1.7445e-08 1.94287e-08 -5.4008e-08 -6.63136e-08 -7.51143e-08 -5.4008e-08 1.22109e-07 1.35621e-07 -5.4008e-08 -6.63136e-08 1.35621e-07 2.09265e-07 1.94287e-08 1.78605e-08 -6.63136e-08 -5.96002e-08 1.78605e-08 1.85159e-08 -5.96002e-08 -6.28512e-08 -6.63136e-08 -5.96002e-08 2.09265e-07 1.81383e-07 -5.96002e-08 -6.28512e-08 1.81383e-07 1.87456e-07 1.26887e-09 1.24391e-09 -4.99646e-09 -4.88153e-09 1.24391e-09 1.25355e-09 -4.88153e-09 -4.92368e-09 -4.99646e-09 -4.88153e-09 1.85159e-08 1.82923e-08 -4.88153e-09 -4.92368e-09 1.82923e-08 1.83473e-08 1.25355e-09 1.25053e-09 -4.92368e-09 -4.91155e-09 1.25053e-09 1.25134e-09 -4.91155e-09 -4.91446e-09 -4.92368e-09 -4.91155e-09 1.83473e-08 1.83371e-08 -4.91155e-09 -4.91446e-09 1.83371e-08 1.83378e-08 1.85159e-08 1.82923e-08 -6.28512e-08 -6.17613e-08 1.82923e-08 1.83473e-08 -6.17613e-08 -6.2069e-08 -6.28512e-08 -6.17613e-08 1.87456e-07 1.86604e-07 -6.17613e-08 -6.2069e-08 1.86604e-07 1.86553e-07 1.83473e-08 1.83371e-08 -6.2069e-08 -6.20048e-08 1.83371e-08 1.83378e-08 -6.20048e-08 -6.20132e-08 -6.2069e-08 -6.20048e-08 1.86553e-07 1.86641e-07 -6.20048e-08 -6.20132e-08 1.86641e-07 1.86601e-07 1.22109e-07 1.35621e-07 -6.90603e-07 -1.59715e-07 1.35621e-07 2.09265e-07 -1.59715e-07 -4.30247e-07 -6.90603e-07 -1.59715e-07 -9.86356e-07 -1.10148e-06 -1.59715e-07 -4.30247e-07 -1.10148e-06 3.52201e-08 2.09265e-07 1.81383e-07 -4.30247e-07 -3.71278e-07 1.81383e-07 1.87456e-07 -3.71278e-07 -3.85428e-07 -4.30247e-07 -3.71278e-07 3.52201e-08 -2.80136e-07 -3.71278e-07 -3.85428e-07 -2.80136e-07 -2.38416e-07 -9.86356e-07 -1.10148e-06 -4.72652e-07 1.19289e-05 -1.10148e-06 3.52201e-08 1.19289e-05 1.0741e-05 -4.72652e-07 1.19289e-05 -8e-05 -8e-05 1.19289e-05 1.0741e-05 -8e-05 -8e-05 3.52201e-08 -2.80136e-07 1.0741e-05 1.06127e-05 -2.80136e-07 -2.38416e-07 1.06127e-05 1.07015e-05 1.0741e-05 1.06127e-05 -8e-05 -8e-05 1.06127e-05 1.07015e-05 -8e-05 -8e-05 1.87456e-07 1.86604e-07 -3.85428e-07 -3.82631e-07 1.86604e-07 1.86553e-07 -3.82631e-07 -3.83238e-07 -3.85428e-07 -3.82631e-07 -2.38416e-07 -2.37555e-07 -3.82631e-07 -3.83238e-07 -2.37555e-07 -2.40678e-07 1.86553e-07 1.86641e-07 -3.83238e-07 -3.83099e-07 1.86641e-07 1.86601e-07 -3.83099e-07 -3.83132e-07 -3.83238e-07 -3.83099e-07 -2.40678e-07 -2.39301e-07 -3.83099e-07 -3.83132e-07 -2.39301e-07 -2.3974e-07 -2.38416e-07 -2.37555e-07 1.07015e-05 1.06751e-05 -2.37555e-07 -2.40678e-07 1.06751e-05 1.0681e-05 1.07015e-05 1.06751e-05 -8e-05 -8e-05 1.06751e-05 1.0681e-05 -8e-05 -8e-05 -2.40678e-07 -2.39301e-07 1.0681e-05 1.068e-05 -2.39301e-07 -2.3974e-07 1.068e-05 1.06801e-05 1.0681e-05 1.068e-05 -8e-05 -8e-05 1.068e-05 1.06801e-05 -8e-05 -8e-05 1.25134e-09 1.25115e-09 -4.91446e-09 -4.91394e-09 1.25115e-09 1.25119e-09 -4.91394e-09 -4.91397e-09 -4.91446e-09 -4.91394e-09 1.83378e-08 1.83383e-08 -4.91394e-09 -4.91397e-09 1.83383e-08 1.8338e-08 1.25119e-09 1.25118e-09 -4.91397e-09 -4.914e-09 1.25118e-09 1.25118e-09 -4.914e-09 -4.91398e-09 -4.91397e-09 -4.914e-09 1.8338e-08 1.83381e-08 -4.914e-09 -4.91398e-09 1.83381e-08 1.83381e-08 1.83378e-08 1.83383e-08 -6.20132e-08 -6.20139e-08 1.83383e-08 1.8338e-08 -6.20139e-08 -6.20129e-08 -6.20132e-08 -6.20139e-08 1.86601e-07 1.86615e-07 -6.20139e-08 -6.20129e-08 1.86615e-07 1.86611e-07 1.8338e-08 1.83381e-08 -6.20129e-08 -6.20134e-08 1.83381e-08 1.83381e-08 -6.20134e-08 -6.20132e-08 -6.20129e-08 -6.20134e-08 1.86611e-07 1.86612e-07 -6.20134e-08 -6.20132e-08 1.86612e-07 1.86612e-07 1.25118e-09 1.25118e-09 -4.91398e-09 -4.91399e-09 1.25118e-09 1.25118e-09 -4.91399e-09 -4.91399e-09 -4.91398e-09 -4.91399e-09 1.83381e-08 1.83381e-08 -4.91399e-09 -4.91399e-09 1.83381e-08 1.83381e-08 1.25118e-09 1.25118e-09 -4.91399e-09 -4.91399e-09 1.25118e-09 1.25118e-09 -4.91399e-09 -4.91399e-09 -4.91399e-09 -4.91399e-09 1.83381e-08 1.83381e-08 -4.91399e-09 -4.91399e-09 1.83381e-08 1.83381e-08 1.83381e-08 1.83381e-08 -6.20132e-08 -6.20132e-08 1.83381e-08 1.83381e-08 -6.20132e-08 -6.20132e-08 -6.20132e-08 -6.20132e-08 1.86612e-07 1.86612e-07 -6.20132e-08 -6.20132e-08 1.86612e-07 1.86612e-07 1.83381e-08 1.83381e-08 -6.20132e-08 -6.20132e-08 1.83381e-08 1.83381e-08 -6.20132e-08 -6.20132e-08 -6.20132e-08 -6.20132e-08 1.86612e-07 1.86612e-07 -6.20132e-08 -6.20132e-08 1.86612e-07 1.86612e-07 1.86601e-07 1.86615e-07 -3.83132e-07 -3.83125e-07 1.86615e-07 1.86611e-07 -3.83125e-07 -3.83126e-07 -3.83132e-07 -3.83125e-07 -2.3974e-07 -2.39622e-07 -3.83125e-07 -3.83126e-07 -2.39622e-07 -2.3965e-07 1.86611e-07 1.86612e-07 -3.83126e-07 -3.83126e-07 1.86612e-07 1.86612e-07 -3.83126e-07 -3.83126e-07 -3.83126e-07 -3.83126e-07 -2.3965e-07 -2.39644e-07 -3.83126e-07 -3.83126e-07 -2.39644e-07 -2.39645e-07 -2.3974e-07 -2.39622e-07 1.06801e-05 1.06801e-05 -2.39622e-07 -2.3965e-07 1.06801e-05 1.06801e-05 1.06801e-05 1.06801e-05 -8e-05 -8e-05 1.06801e-05 1.06801e-05 -8e-05 -8e-05 -2.3965e-07 -2.39644e-07 1.06801e-05 1.06801e-05 -2.39644e-07 -2.39645e-07 1.06801e-05 1.06801e-05 1.06801e-05 1.06801e-05 -8e-05 -8e-05 1.06801e-05 1.06801e-05 -8e-05 -8e-05 1.86612e-07 1.86612e-07 -3.83126e-07 -3.83126e-07 1.86612e-07 1.86612e-07 -3.83126e-07 -3.83126e-07 -3.83126e-07 -3.83126e-07 -2.39645e-07 -2.39645e-07 -3.83126e-07 -3.83126e-07 -2.39645e-07 -2.39645e-07 1.86612e-07 1.86612e-07 -3.83126e-07 -3.83126e-07 1.86612e-07 1.86612e-07 -3.83126e-07 -3.83126e-07 -3.83126e-07 -3.83126e-07 -2.39645e-07 -2.39645e-07 -3.83126e-07 -3.83126e-07 -2.39645e-07 -2.39645e-07 -2.39645e-07 -2.39645e-07 1.06801e-05 1.06801e-05 -2.39645e-07 -2.39645e-07 1.06801e-05 1.06801e-05 1.06801e-05 1.06801e-05 -8e-05 -8e-05 1.06801e-05 1.06801e-05 -8e-05 -8e-05 -2.39645e-07 -2.39645e-07 1.06801e-05 1.06801e-05 -2.39645e-07 -2.39645e-07 1.06801e-05 1.06801e-05 1.06801e-05 1.06801e-05 -8e-05 -8e-05 1.06801e-05 1.06801e-05 -8e-05 -8e-05 -1.09284e-14 -2.13789e-14 1.3112e-14 1.82112e-14 -2.13789e-14 -1.52187e-14 1.82112e-14 1.64181e-14 1.3112e-14 1.82112e-14 2.82572e-14 2.67545e-14 1.82112e-14 1.64181e-14 2.67545e-14 2.75485e-14 -1.52187e-14 -1.81063e-14 1.64181e-14 1.70909e-14 -1.81063e-14 -1.72799e-14 1.70909e-14 1.6859e-14 1.64181e-14 1.70909e-14 2.75485e-14 2.73199e-14 1.70909e-14 1.6859e-14 2.73199e-14 2.73524e-14 2.82572e-14 2.67545e-14 -4.19505e-13 -4.19004e-13 2.67545e-14 2.75485e-14 -4.19004e-13 -4.19172e-13 -4.19505e-13 -4.19004e-13 2.71768e-12 2.71752e-12 -4.19004e-13 -4.19172e-13 2.71752e-12 2.71757e-12 2.75485e-14 2.73199e-14 -4.19172e-13 -4.19129e-13 2.73199e-14 2.73524e-14 -4.19129e-13 -4.1912e-13 -4.19172e-13 -4.19129e-13 2.71757e-12 2.71758e-12 -4.19129e-13 -4.1912e-13 2.71758e-12 2.71753e-12 -1.72799e-14 -1.7508e-14 1.6859e-14 1.69242e-14 -1.7508e-14 -1.74581e-14 1.69242e-14 1.69192e-14 1.6859e-14 1.69242e-14 2.73524e-14 2.73649e-14 1.69242e-14 1.69192e-14 2.73649e-14 2.73203e-14 -1.74581e-14 -1.74536e-14 1.69192e-14 1.68909e-14 -1.74536e-14 -1.7488e-14 1.68909e-14 1.69619e-14 1.69192e-14 1.68909e-14 2.73203e-14 2.74288e-14 1.68909e-14 1.69619e-14 2.74288e-14 2.7185e-14 2.73524e-14 2.73649e-14 -4.1912e-13 -4.1916e-13 2.73649e-14 2.73203e-14 -4.1916e-13 -4.19053e-13 -4.1912e-13 -4.1916e-13 2.71753e-12 2.71768e-12 -4.1916e-13 -4.19053e-13 2.71768e-12 2.71726e-12 2.73203e-14 2.74288e-14 -4.19053e-13 -4.19331e-13 2.74288e-14 2.7185e-14 -4.19331e-13 -4.18662e-13 -4.19053e-13 -4.19331e-13 2.71726e-12 2.71838e-12 -4.19331e-13 -4.18662e-13 2.71838e-12 2.71563e-12 2.71768e-12 2.71752e-12 -1.43883e-11 -1.43883e-11 2.71752e-12 2.71757e-12 -1.43883e-11 -1.43883e-11 -1.43883e-11 -1.43883e-11 6.80693e-11 6.80693e-11 -1.43883e-11 -1.43883e-11 6.80693e-11 6.80693e-11 2.71757e-12 2.71758e-12 -1.43883e-11 -1.43883e-11 2.71758e-12 2.71753e-12 -1.43883e-11 -1.43882e-11 -1.43883e-11 -1.43883e-11 6.80693e-11 6.80694e-11 -1.43883e-11 -1.43882e-11 6.80694e-11 6.80691e-11 6.80693e-11 6.80693e-11 -3.00726e-10 -3.00726e-10 6.80693e-11 6.80693e-11 -3.00726e-10 -3.00726e-10 -3.00726e-10 -3.00726e-10 1.25118e-09 1.25118e-09 -3.00726e-10 -3.00726e-10 1.25118e-09 1.25118e-09 6.80693e-11 6.80694e-11 -3.00726e-10 -3.00726e-10 6.80694e-11 6.80691e-11 -3.00726e-10 -3.00725e-10 -3.00726e-10 -3.00726e-10 1.25118e-09 1.25118e-09 -3.00726e-10 -3.00725e-10 1.25118e-09 1.25118e-09 2.71753e-12 2.71768e-12 -1.43882e-11 -1.43885e-11 2.71768e-12 2.71726e-12 -1.43885e-11 -1.43876e-11 -1.43882e-11 -1.43885e-11 6.80691e-11 6.80702e-11 -1.43885e-11 -1.43876e-11 6.80702e-11 6.80667e-11 2.71726e-12 2.71838e-12 -1.43876e-11 -1.43903e-11 2.71838e-12 2.71563e-12 -1.43903e-11 -1.43831e-11 -1.43876e-11 -1.43903e-11 6.80667e-11 6.8077e-11 -1.43903e-11 -1.43831e-11 6.8077e-11 6.80489e-11 6.80691e-11 6.80702e-11 -3.00725e-10 -3.00727e-10 6.80702e-11 6.80667e-11 -3.00727e-10 -3.0072e-10 -3.00725e-10 -3.00727e-10 1.25118e-09 1.25119e-09 -3.00727e-10 -3.0072e-10 1.25119e-09 1.25116e-09 6.80667e-11 6.8077e-11 -3.0072e-10 -3.00743e-10 6.8077e-11 6.80489e-11 -3.00743e-10 -3.00677e-10 -3.0072e-10 -3.00743e-10 1.25116e-09 1.25124e-09 -3.00743e-10 -3.00677e-10 1.25124e-09 1.251e-09 -1.7488e-14 -1.74154e-14 1.69619e-14 1.68154e-14 -1.74154e-14 -1.75508e-14 1.68154e-14 1.70892e-14 1.69619e-14 1.68154e-14 2.7185e-14 2.76782e-14 1.68154e-14 1.70892e-14 2.76782e-14 2.68076e-14 -1.75508e-14 -1.72953e-14 1.70892e-14 1.6604e-14 -1.72953e-14 -1.7908e-14 1.6604e-14 1.76178e-14 1.70892e-14 1.6604e-14 2.68076e-14 2.8177e-14 1.6604e-14 1.76178e-14 2.8177e-14 2.52897e-14 2.7185e-14 2.76782e-14 -4.18662e-13 -4.20093e-13 2.76782e-14 2.68076e-14 -4.20093e-13 -4.1753e-13 -4.18662e-13 -4.20093e-13 2.71563e-12 2.72166e-12 -4.20093e-13 -4.1753e-13 2.72166e-12 2.71038e-12 2.68076e-14 2.8177e-14 -4.1753e-13 -4.21165e-13 2.8177e-14 2.52897e-14 -4.21165e-13 -4.15396e-13 -4.1753e-13 -4.21165e-13 2.71038e-12 2.72811e-12 -4.21165e-13 -4.15396e-13 2.72811e-12 2.69655e-12 -1.7908e-14 -1.56234e-14 1.76178e-14 1.36938e-14 -1.56234e-14 -2.40174e-14 1.36938e-14 2.84981e-14 1.76178e-14 1.36938e-14 2.52897e-14 3.76651e-14 1.36938e-14 2.84981e-14 3.76651e-14 -1.42428e-14 -2.40174e-14 -7.45496e-15 2.84981e-14 -8.39961e-15 -7.45496e-15 1.30452e-14 -8.39961e-15 9.03187e-15 2.84981e-14 -8.39961e-15 -1.42428e-14 8.9792e-14 -8.39961e-15 9.03187e-15 8.9792e-14 2.50761e-13 2.52897e-14 3.76651e-14 -4.15396e-13 -4.43514e-13 3.76651e-14 -1.42428e-14 -4.43514e-13 -3.0826e-13 -4.15396e-13 -4.43514e-13 2.69655e-12 2.81987e-12 -4.43514e-13 -3.0826e-13 2.81987e-12 2.31626e-12 -1.42428e-14 8.9792e-14 -3.0826e-13 -6.76155e-13 8.9792e-14 2.50761e-13 -6.76155e-13 -4.31744e-13 -3.0826e-13 -6.76155e-13 2.31626e-12 3.26154e-12 -6.76155e-13 -4.31744e-13 3.26154e-12 5.62709e-12 2.71563e-12 2.72166e-12 -1.43831e-11 -1.44e-11 2.72166e-12 2.71038e-12 -1.44e-11 -1.43666e-11 -1.43831e-11 -1.44e-11 6.80489e-11 6.81175e-11 -1.44e-11 -1.43666e-11 6.81175e-11 6.79721e-11 2.71038e-12 2.72811e-12 -1.43666e-11 -1.44203e-11 2.72811e-12 2.69655e-12 -1.44203e-11 -1.43373e-11 -1.43666e-11 -1.44203e-11 6.79721e-11 6.82359e-11 -1.44203e-11 -1.43373e-11 6.82359e-11 6.7783e-11 6.80489e-11 6.81175e-11 -3.00677e-10 -3.00849e-10 6.81175e-11 6.79721e-11 -3.00849e-10 -3.00451e-10 -3.00677e-10 -3.00849e-10 1.251e-09 1.25166e-09 -3.00849e-10 -3.00451e-10 1.25166e-09 1.25004e-09 6.79721e-11 6.82359e-11 -3.00451e-10 -3.01266e-10 6.82359e-11 6.7783e-11 -3.01266e-10 -2.99734e-10 -3.00451e-10 -3.01266e-10 1.25004e-09 1.25364e-09 -3.01266e-10 -2.99734e-10 1.25364e-09 1.24638e-09 2.69655e-12 2.81987e-12 -1.43373e-11 -1.46162e-11 2.81987e-12 2.31626e-12 -1.46162e-11 -1.34929e-11 -1.43373e-11 -1.46162e-11 6.7783e-11 6.89721e-11 -1.46162e-11 -1.34929e-11 6.89721e-11 6.51527e-11 2.31626e-12 3.26154e-12 -1.34929e-11 -1.65385e-11 3.26154e-12 5.62709e-12 -1.65385e-11 -1.27716e-11 -1.34929e-11 -1.65385e-11 6.51527e-11 7.02137e-11 -1.65385e-11 -1.27716e-11 7.02137e-11 1.02231e-10 6.7783e-11 6.89721e-11 -2.99734e-10 -3.02957e-10 6.89721e-11 6.51527e-11 -3.02957e-10 -2.96821e-10 -2.99734e-10 -3.02957e-10 1.24638e-09 1.26069e-09 -3.02957e-10 -2.96821e-10 1.26069e-09 1.23813e-09 6.51527e-11 7.02137e-11 -2.96821e-10 -3.09796e-10 7.02137e-11 1.02231e-10 -3.09796e-10 -2.49235e-10 -2.96821e-10 -3.09796e-10 1.23813e-09 1.21874e-09 -3.09796e-10 -2.49235e-10 1.21874e-09 1.61345e-09 1.25118e-09 1.25118e-09 -4.91399e-09 -4.91399e-09 1.25118e-09 1.25118e-09 -4.91399e-09 -4.91399e-09 -4.91399e-09 -4.91399e-09 1.83381e-08 1.83381e-08 -4.91399e-09 -4.91399e-09 1.83381e-08 1.83381e-08 1.25118e-09 1.25118e-09 -4.91399e-09 -4.91399e-09 1.25118e-09 1.25118e-09 -4.91399e-09 -4.91398e-09 -4.91399e-09 -4.91399e-09 1.83381e-08 1.83381e-08 -4.91399e-09 -4.91398e-09 1.83381e-08 1.83381e-08 1.83381e-08 1.83381e-08 -6.20132e-08 -6.20132e-08 1.83381e-08 1.83381e-08 -6.20132e-08 -6.20132e-08 -6.20132e-08 -6.20132e-08 1.86612e-07 1.86612e-07 -6.20132e-08 -6.20132e-08 1.86612e-07 1.86612e-07 1.83381e-08 1.83381e-08 -6.20132e-08 -6.20132e-08 1.83381e-08 1.83381e-08 -6.20132e-08 -6.20132e-08 -6.20132e-08 -6.20132e-08 1.86612e-07 1.86612e-07 -6.20132e-08 -6.20132e-08 1.86612e-07 1.86612e-07 1.25118e-09 1.25119e-09 -4.91398e-09 -4.91399e-09 1.25119e-09 1.25116e-09 -4.91399e-09 -4.91396e-09 -4.91398e-09 -4.91399e-09 1.83381e-08 1.83381e-08 -4.91399e-09 -4.91396e-09 1.83381e-08 1.8338e-08 1.25116e-09 1.25124e-09 -4.91396e-09 -4.91409e-09 1.25124e-09 1.251e-09 -4.91409e-09 -4.91365e-09 -4.91396e-09 -4.