# vtk DataFile Version 3.0
#This file was generated by the deal.II library on 2022/11/2 at 18:45:13
ASCII
DATASET UNSTRUCTURED_GRID

POINTS 4096 double
0 0.5 0
0.03125 0.5 0
0 0.53125 0
0.03125 0.53125 0
0.03125 0.5 0
0.0625 0.5 0
0.03125 0.53125 0
0.0625 0.53125 0
0 0.53125 0
0.03125 0.53125 0
0 0.5625 0
0.03125 0.5625 0
0.03125 0.53125 0
0.0625 0.53125 0
0.03125 0.5625 0
0.0625 0.5625 0
0.0625 0.5 0
0.09375 0.5 0
0.0625 0.53125 0
0.09375 0.53125 0
0.09375 0.5 0
0.125 0.5 0
0.09375 0.53125 0
0.125 0.53125 0
0.0625 0.53125 0
0.09375 0.53125 0
0.0625 0.5625 0
0.09375 0.5625 0
0.09375 0.53125 0
0.125 0.53125 0
0.09375 0.5625 0
0.125 0.5625 0
0 0.5625 0
0.03125 0.5625 0
0 0.59375 0
0.03125 0.59375 0
0.03125 0.5625 0
0.0625 0.5625 0
0.03125 0.59375 0
0.0625 0.59375 0
0 0.59375 0
0.03125 0.59375 0
0 0.625 0
0.03125 0.625 0
0.03125 0.59375 0
0.0625 0.59375 0
0.03125 0.625 0
0.0625 0.625 0
0.0625 0.5625 0
0.09375 0.5625 0
0.0625 0.59375 0
0.09375 0.59375 0
0.09375 0.5625 0
0.125 0.5625 0
0.09375 0.59375 0
0.125 0.59375 0
0.0625 0.59375 0
0.09375 0.59375 0
0.0625 0.625 0
0.09375 0.625 0
0.09375 0.59375 0
0.125 0.59375 0
0.09375 0.625 0
0.125 0.625 0
0.125 0.5 0
0.15625 0.5 0
0.125 0.53125 0
0.15625 0.53125 0
0.15625 0.5 0
0.1875 0.5 0
0.15625 0.53125 0
0.1875 0.53125 0
0.125 0.53125 0
0.15625 0.53125 0
0.125 0.5625 0
0.15625 0.5625 0
0.15625 0.53125 0
0.1875 0.53125 0
0.15625 0.5625 0
0.1875 0.5625 0
0.1875 0.5 0
0.21875 0.5 0
0.1875 0.53125 0
0.21875 0.53125 0
0.21875 0.5 0
0.25 0.5 0
0.21875 0.53125 0
0.25 0.53125 0
0.1875 0.53125 0
0.21875 0.53125 0
0.1875 0.5625 0
0.21875 0.5625 0
0.21875 0.53125 0
0.25 0.53125 0
0.21875 0.5625 0
0.25 0.5625 0
0.125 0.5625 0
0.15625 0.5625 0
0.125 0.59375 0
0.15625 0.59375 0
0.15625 0.5625 0
0.1875 0.5625 0
0.15625 0.59375 0
0.1875 0.59375 0
0.125 0.59375 0
0.15625 0.59375 0
0.125 0.625 0
0.15625 0.625 0
0.15625 0.59375 0
0.1875 0.59375 0
0.15625 0.625 0
0.1875 0.625 0
0.1875 0.5625 0
0.21875 0.5625 0
0.1875 0.59375 0
0.21875 0.59375 0
0.21875 0.5625 0
0.25 0.5625 0
0.21875 0.59375 0
0.25 0.59375 0
0.1875 0.59375 0
0.21875 0.59375 0
0.1875 0.625 0
0.21875 0.625 0
0.21875 0.59375 0
0.25 0.59375 0
0.21875 0.625 0
0.25 0.625 0
0 0.625 0
0.03125 0.625 0
0 0.65625 0
0.03125 0.65625 0
0.03125 0.625 0
0.0625 0.625 0
0.03125 0.65625 0
0.0625 0.65625 0
0 0.65625 0
0.03125 0.65625 0
0 0.6875 0
0.03125 0.6875 0
0.03125 0.65625 0
0.0625 0.65625 0
0.03125 0.6875 0
0.0625 0.6875 0
0.0625 0.625 0
0.09375 0.625 0
0.0625 0.65625 0
0.09375 0.65625 0
0.09375 0.625 0
0.125 0.625 0
0.09375 0.65625 0
0.125 0.65625 0
0.0625 0.65625 0
0.09375 0.65625 0
0.0625 0.6875 0
0.09375 0.6875 0
0.09375 0.65625 0
0.125 0.65625 0
0.09375 0.6875 0
0.125 0.6875 0
0 0.6875 0
0.03125 0.6875 0
0 0.71875 0
0.03125 0.71875 0
0.03125 0.6875 0
0.0625 0.6875 0
0.03125 0.71875 0
0.0625 0.71875 0
0 0.71875 0
0.03125 0.71875 0
0 0.75 0
0.03125 0.75 0
0.03125 0.71875 0
0.0625 0.71875 0
0.03125 0.75 0
0.0625 0.75 0
0.0625 0.6875 0
0.09375 0.6875 0
0.0625 0.71875 0
0.09375 0.71875 0
0.09375 0.6875 0
0.125 0.6875 0
0.09375 0.71875 0
0.125 0.71875 0
0.0625 0.71875 0
0.09375 0.71875 0
0.0625 0.75 0
0.09375 0.75 0
0.09375 0.71875 0
0.125 0.71875 0
0.09375 0.75 0
0.125 0.75 0
0.125 0.625 0
0.15625 0.625 0
0.125 0.65625 0
0.15625 0.65625 0
0.15625 0.625 0
0.1875 0.625 0
0.15625 0.65625 0
0.1875 0.65625 0
0.125 0.65625 0
0.15625 0.65625 0
0.125 0.6875 0
0.15625 0.6875 0
0.15625 0.65625 0
0.1875 0.65625 0
0.15625 0.6875 0
0.1875 0.6875 0
0.1875 0.625 0
0.21875 0.625 0
0.1875 0.65625 0
0.21875 0.65625 0
0.21875 0.625 0
0.25 0.625 0
0.21875 0.65625 0
0.25 0.65625 0
0.1875 0.65625 0
0.21875 0.65625 0
0.1875 0.6875 0
0.21875 0.6875 0
0.21875 0.65625 0
0.25 0.65625 0
0.21875 0.6875 0
0.25 0.6875 0
0.125 0.6875 0
0.15625 0.6875 0
0.125 0.71875 0
0.15625 0.71875 0
0.15625 0.6875 0
0.1875 0.6875 0
0.15625 0.71875 0
0.1875 0.71875 0
0.125 0.71875 0
0.15625 0.71875 0
0.125 0.75 0
0.15625 0.75 0
0.15625 0.71875 0
0.1875 0.71875 0
0.15625 0.75 0
0.1875 0.75 0
0.1875 0.6875 0
0.21875 0.6875 0
0.1875 0.71875 0
0.21875 0.71875 0
0.21875 0.6875 0
0.25 0.6875 0
0.21875 0.71875 0
0.25 0.71875 0
0.1875 0.71875 0
0.21875 0.71875 0
0.1875 0.75 0
0.21875 0.75 0
0.21875 0.71875 0
0.25 0.71875 0
0.21875 0.75 0
0.25 0.75 0
0.25 0.5 0
0.28125 0.5 0
0.25 0.53125 0
0.28125 0.53125 0
0.28125 0.5 0
0.3125 0.5 0
0.28125 0.53125 0
0.3125 0.53125 0
0.25 0.53125 0
0.28125 0.53125 0
0.25 0.5625 0
0.28125 0.5625 0
0.28125 0.53125 0
0.3125 0.53125 0
0.28125 0.5625 0
0.3125 0.5625 0
0.3125 0.5 0
0.34375 0.5 0
0.3125 0.53125 0
0.34375 0.53125 0
0.34375 0.5 0
0.375 0.5 0
0.34375 0.53125 0
0.375 0.53125 0
0.3125 0.53125 0
0.34375 0.53125 0
0.3125 0.5625 0
0.34375 0.5625 0
0.34375 0.53125 0
0.375 0.53125 0
0.34375 0.5625 0
0.375 0.5625 0
0.25 0.5625 0
0.28125 0.5625 0
0.25 0.59375 0
0.28125 0.59375 0
0.28125 0.5625 0
0.3125 0.5625 0
0.28125 0.59375 0
0.3125 0.59375 0
0.25 0.59375 0
0.28125 0.59375 0
0.25 0.625 0
0.28125 0.625 0
0.28125 0.59375 0
0.3125 0.59375 0
0.28125 0.625 0
0.3125 0.625 0
0.3125 0.5625 0
0.34375 0.5625 0
0.3125 0.59375 0
0.34375 0.59375 0
0.34375 0.5625 0
0.375 0.5625 0
0.34375 0.59375 0
0.375 0.59375 0
0.3125 0.59375 0
0.34375 0.59375 0
0.3125 0.625 0
0.34375 0.625 0
0.34375 0.59375 0
0.375 0.59375 0
0.34375 0.625 0
0.375 0.625 0
0.375 0.5 0
0.40625 0.5 0
0.375 0.53125 0
0.40625 0.53125 0
0.40625 0.5 0
0.4375 0.5 0
0.40625 0.53125 0
0.4375 0.53125 0
0.375 0.53125 0
0.40625 0.53125 0
0.375 0.5625 0
0.40625 0.5625 0
0.40625 0.53125 0
0.4375 0.53125 0
0.40625 0.5625 0
0.4375 0.5625 0
0.4375 0.5 0
0.46875 0.5 0
0.4375 0.53125 0
0.46875 0.53125 0
0.46875 0.5 0
0.5 0.5 0
0.46875 0.53125 0
0.5 0.53125 0
0.4375 0.53125 0
0.46875 0.53125 0
0.4375 0.5625 0
0.46875 0.5625 0
0.46875 0.53125 0
0.5 0.53125 0
0.46875 0.5625 0
0.5 0.5625 0
0.375 0.5625 0
0.40625 0.5625 0
0.375 0.59375 0
0.40625 0.59375 0
0.40625 0.5625 0
0.4375 0.5625 0
0.40625 0.59375 0
0.4375 0.59375 0
0.375 0.59375 0
0.40625 0.59375 0
0.375 0.625 0
0.40625 0.625 0
0.40625 0.59375 0
0.4375 0.59375 0
0.40625 0.625 0
0.4375 0.625 0
0.4375 0.5625 0
0.46875 0.5625 0
0.4375 0.59375 0
0.46875 0.59375 0
0.46875 0.5625 0
0.5 0.5625 0
0.46875 0.59375 0
0.5 0.59375 0
0.4375 0.59375 0
0.46875 0.59375 0
0.4375 0.625 0
0.46875 0.625 0
0.46875 0.59375 0
0.5 0.59375 0
0.46875 0.625 0
0.5 0.625 0
0.25 0.625 0
0.28125 0.625 0
0.25 0.65625 0
0.28125 0.65625 0
0.28125 0.625 0
0.3125 0.625 0
0.28125 0.65625 0
0.3125 0.65625 0
0.25 0.65625 0
0.28125 0.65625 0
0.25 0.6875 0
0.28125 0.6875 0
0.28125 0.65625 0
0.3125 0.65625 0
0.28125 0.6875 0
0.3125 0.6875 0
0.3125 0.625 0
0.34375 0.625 0
0.3125 0.65625 0
0.34375 0.65625 0
0.34375 0.625 0
0.375 0.625 0
0.34375 0.65625 0
0.375 0.65625 0
0.3125 0.65625 0
0.34375 0.65625 0
0.3125 0.6875 0
0.34375 0.6875 0
0.34375 0.65625 0
0.375 0.65625 0
0.34375 0.6875 0
0.375 0.6875 0
0.25 0.6875 0
0.28125 0.6875 0
0.25 0.71875 0
0.28125 0.71875 0
0.28125 0.6875 0
0.3125 0.6875 0
0.28125 0.71875 0
0.3125 0.71875 0
0.25 0.71875 0
0.28125 0.71875 0
0.25 0.75 0
0.28125 0.75 0
0.28125 0.71875 0
0.3125 0.71875 0
0.28125 0.75 0
0.3125 0.75 0
0.3125 0.6875 0
0.34375 0.6875 0
0.3125 0.71875 0
0.34375 0.71875 0
0.34375 0.6875 0
0.375 0.6875 0
0.34375 0.71875 0
0.375 0.71875 0
0.3125 0.71875 0
0.34375 0.71875 0
0.3125 0.75 0
0.34375 0.75 0
0.34375 0.71875 0
0.375 0.71875 0
0.34375 0.75 0
0.375 0.75 0
0.375 0.625 0
0.40625 0.625 0
0.375 0.65625 0
0.40625 0.65625 0
0.40625 0.625 0
0.4375 0.625 0
0.40625 0.65625 0
0.4375 0.65625 0
0.375 0.65625 0
0.40625 0.65625 0
0.375 0.6875 0
0.40625 0.6875 0
0.40625 0.65625 0
0.4375 0.65625 0
0.40625 0.6875 0
0.4375 0.6875 0
0.4375 0.625 0
0.46875 0.625 0
0.4375 0.65625 0
0.46875 0.65625 0
0.46875 0.625 0
0.5 0.625 0
0.46875 0.65625 0
0.5 0.65625 0
0.4375 0.65625 0
0.46875 0.65625 0
0.4375 0.6875 0
0.46875 0.6875 0
0.46875 0.65625 0
0.5 0.65625 0
0.46875 0.6875 0
0.5 0.6875 0
0.375 0.6875 0
0.40625 0.6875 0
0.375 0.71875 0
0.40625 0.71875 0
0.40625 0.6875 0
0.4375 0.6875 0
0.40625 0.71875 0
0.4375 0.71875 0
0.375 0.71875 0
0.40625 0.71875 0
0.375 0.75 0
0.40625 0.75 0
0.40625 0.71875 0
0.4375 0.71875 0
0.40625 0.75 0
0.4375 0.75 0
0.4375 0.6875 0
0.46875 0.6875 0
0.4375 0.71875 0
0.46875 0.71875 0
0.46875 0.6875 0
0.5 0.6875 0
0.46875 0.71875 0
0.5 0.71875 0
0.4375 0.71875 0
0.46875 0.71875 0
0.4375 0.75 0
0.46875 0.75 0
0.46875 0.71875 0
0.5 0.71875 0
0.46875 0.75 0
0.5 0.75 0
0 0.75 0
0.03125 0.75 0
0 0.78125 0
0.03125 0.78125 0
0.03125 0.75 0
0.0625 0.75 0
0.03125 0.78125 0
0.0625 0.78125 0
0 0.78125 0
0.03125 0.78125 0
0 0.8125 0
0.03125 0.8125 0
0.03125 0.78125 0
0.0625 0.78125 0
0.03125 0.8125 0
0.0625 0.8125 0
0.0625 0.75 0
0.09375 0.75 0
0.0625 0.78125 0
0.09375 0.78125 0
0.09375 0.75 0
0.125 0.75 0
0.09375 0.78125 0
0.125 0.78125 0
0.0625 0.78125 0
0.09375 0.78125 0
0.0625 0.8125 0
0.09375 0.8125 0
0.09375 0.78125 0
0.125 0.78125 0
0.09375 0.8125 0
0.125 0.8125 0
0 0.8125 0
0.03125 0.8125 0
0 0.84375 0
0.03125 0.84375 0
0.03125 0.8125 0
0.0625 0.8125 0
0.03125 0.84375 0
0.0625 0.84375 0
0 0.84375 0
0.03125 0.84375 0
0 0.875 0
0.03125 0.875 0
0.03125 0.84375 0
0.0625 0.84375 0
0.03125 0.875 0
0.0625 0.875 0
0.0625 0.8125 0
0.09375 0.8125 0
0.0625 0.84375 0
0.09375 0.84375 0
0.09375 0.8125 0
0.125 0.8125 0
0.09375 0.84375 0
0.125 0.84375 0
0.0625 0.84375 0
0.09375 0.84375 0
0.0625 0.875 0
0.09375 0.875 0
0.09375 0.84375 0
0.125 0.84375 0
0.09375 0.875 0
0.125 0.875 0
0.125 0.75 0
0.15625 0.75 0
0.125 0.78125 0
0.15625 0.78125 0
0.15625 0.75 0
0.1875 0.75 0
0.15625 0.78125 0
0.1875 0.78125 0
0.125 0.78125 0
0.15625 0.78125 0
0.125 0.8125 0
0.15625 0.8125 0
0.15625 0.78125 0
0.1875 0.78125 0
0.15625 0.8125 0
0.1875 0.8125 0
0.1875 0.75 0
0.21875 0.75 0
0.1875 0.78125 0
0.21875 0.78125 0
0.21875 0.75 0
0.25 0.75 0
0.21875 0.78125 0
0.25 0.78125 0
0.1875 0.78125 0
0.21875 0.78125 0
0.1875 0.8125 0
0.21875 0.8125 0
0.21875 0.78125 0
0.25 0.78125 0
0.21875 0.8125 0
0.25 0.8125 0
0.125 0.8125 0
0.15625 0.8125 0
0.125 0.84375 0
0.15625 0.84375 0
0.15625 0.8125 0
[...]
POINT_DATA 4096
SCALARS x_dis double 1
LOOKUP_TABLE default
-4.50422e-13 -3.2028e-13 -2.03636e-12 -4.36505e-13 -3.2028e-13 -7.24324e-13 -4.36505e-13 1.97926e-12 -2.03636e-12 -4.36505e-13 2.66905e-13 2.71085e-12 -4.36505e-13 1.97926e-12 2.71085e-12 -3.84564e-12 -7.24324e-13 -7.87898e-13 1.97926e-12 2.35275e-12 -7.87898e-13 -8.72892e-13 2.35275e-12 2.54316e-12 1.97926e-12 2.35275e-12 -3.84564e-12 -5.30709e-12 2.35275e-12 2.54316e-12 -5.30709e-12 -5.1988e-12 2.66905e-13 2.71085e-12 -4.59664e-11 -2.64425e-11 2.71085e-12 -3.84564e-12 -2.64425e-11 2.27235e-12 -4.59664e-11 -2.64425e-11 5.3506e-11 8.5141e-11 -2.64425e-11 2.27235e-12 8.5141e-11 3.05765e-11 -3.84564e-12 -5.30709e-12 2.27235e-12 7.8824e-12 -5.30709e-12 -5.1988e-12 7.8824e-12 6.19239e-12 2.27235e-12 7.8824e-12 3.05765e-11 2.15837e-11 7.8824e-12 6.19239e-12 2.15837e-11 3.72228e-11 -8.72892e-13 -7.88041e-13 2.54316e-12 2.26969e-12 -7.88041e-13 -7.91381e-13 2.26969e-12 2.28297e-12 2.54316e-12 2.26969e-12 -5.1988e-12 -4.49157e-12 2.26969e-12 2.28297e-12 -4.49157e-12 -4.66256e-12 -7.91381e-13 -8.04969e-13 2.28297e-12 2.313e-12 -8.04969e-13 -7.98954e-13 2.313e-12 2.29913e-12 2.28297e-12 2.313e-12 -4.66256e-12 -4.71462e-12 2.313e-12 2.29913e-12 -4.71462e-12 -4.67126e-12 -5.1988e-12 -4.49157e-12 6.19239e-12 4.97001e-12 -4.49157e-12 -4.66256e-12 4.97001e-12 5.38835e-12 6.19239e-12 4.97001e-12 3.72228e-11 3.78673e-11 4.97001e-12 5.38835e-12 3.78673e-11 3.55057e-11 -4.66256e-12 -4.71462e-12 5.38835e-12 5.31142e-12 -4.71462e-12 -4.67126e-12 5.31142e-12 5.30509e-12 5.38835e-12 5.31142e-12 3.55057e-11 3.62309e-11 5.31142e-12 5.30509e-12 3.62309e-11 3.61865e-11 5.3506e-11 8.5141e-11 -6.77154e-10 -4.38845e-10 8.5141e-11 3.05765e-11 -4.38845e-10 -2.33507e-10 -6.77154e-10 -4.38845e-10 7.35504e-10 9.43913e-10 -4.38845e-10 -2.33507e-10 9.43913e-10 9.99683e-10 3.05765e-11 2.15837e-11 -2.33507e-10 -1.99209e-10 2.15837e-11 3.72228e-11 -1.99209e-10 -2.59178e-10 -2.33507e-10 -1.99209e-10 9.99683e-10 1.18105e-09 -1.99209e-10 -2.59178e-10 1.18105e-09 1.41076e-09 7.35504e-10 9.43913e-10 -7.44661e-09 -4.54141e-09 9.43913e-10 9.99683e-10 -4.54141e-09 -4.58047e-09 -7.44661e-09 -4.54141e-09 -3.33902e-10 4.56855e-09 -4.54141e-09 -4.58047e-09 4.56855e-09 1.3581e-08 9.99683e-10 1.18105e-09 -4.58047e-09 -4.92841e-09 1.18105e-09 1.41076e-09 -4.92841e-09 -5.52153e-09 -4.58047e-09 -4.92841e-09 1.3581e-08 1.66257e-08 -4.92841e-09 -5.52153e-09 1.66257e-08 1.76719e-08 3.72228e-11 3.78673e-11 -2.59178e-10 -2.49561e-10 3.78673e-11 3.55057e-11 -2.49561e-10 -2.4661e-10 -2.59178e-10 -2.49561e-10 1.41076e-09 1.36013e-09 -2.49561e-10 -2.4661e-10 1.36013e-09 1.34345e-09 3.55057e-11 3.62309e-11 -2.4661e-10 -2.49224e-10 3.62309e-11 3.61865e-11 -2.49224e-10 -2.48466e-10 -2.4661e-10 -2.49224e-10 1.34345e-09 1.35223e-09 -2.49224e-10 -2.48466e-10 1.35223e-09 1.3504e-09 1.41076e-09 1.36013e-09 -5.52153e-09 -5.36683e-09 1.36013e-09 1.34345e-09 -5.36683e-09 -5.35289e-09 -5.52153e-09 -5.36683e-09 1.76719e-08 1.70744e-08 -5.36683e-09 -5.35289e-09 1.70744e-08 1.70104e-08 1.34345e-09 1.35223e-09 -5.35289e-09 -5.37132e-09 1.35223e-09 1.3504e-09 -5.37132e-09 -5.36623e-09 -5.35289e-09 -5.37132e-09 1.70104e-08 1.70492e-08 -5.37132e-09 -5.36623e-09 1.70492e-08 1.70382e-08 -7.98954e-13 -7.99852e-13 2.29913e-12 2.30182e-12 -7.99852e-13 -8.00133e-13 2.30182e-12 2.30176e-12 2.29913e-12 2.30182e-12 -4.67126e-12 -4.68412e-12 2.30182e-12 2.30176e-12 -4.68412e-12 -4.68249e-12 -8.00133e-13 -7.99894e-13 2.30176e-12 2.30158e-12 -7.99894e-13 -7.99973e-13 2.30158e-12 2.3019e-12 2.30176e-12 2.30158e-12 -4.68249e-12 -4.6823e-12 2.30158e-12 2.3019e-12 -4.6823e-12 -4.68233e-12 -4.67126e-12 -4.68412e-12 5.30509e-12 5.31413e-12 -4.68412e-12 -4.68249e-12 5.31413e-12 5.30978e-12 5.30509e-12 5.31413e-12 3.61865e-11 3.61621e-11 5.31413e-12 5.30978e-12 3.61621e-11 3.61665e-11 -4.68249e-12 -4.6823e-12 5.30978e-12 5.31184e-12 -4.6823e-12 -4.68233e-12 5.31184e-12 5.31087e-12 5.30978e-12 5.31184e-12 3.61665e-11 3.61662e-11 5.31184e-12 5.31087e-12 3.61662e-11 3.61678e-11 -7.99973e-13 -8.00046e-13 2.3019e-12 2.30099e-12 -8.00046e-13 -8.00728e-13 2.30099e-12 2.30418e-12 2.3019e-12 2.30099e-12 -4.68233e-12 -4.6825e-12 2.30099e-12 2.30418e-12 -4.6825e-12 -4.68397e-12 -8.00728e-13 -8.11661e-13 2.30418e-12 2.2751e-12 -8.11661e-13 -8.47373e-13 2.2751e-12 2.32249e-12 2.30418e-12 2.2751e-12 -4.68397e-12 -4.68184e-12 2.2751e-12 2.32249e-12 -4.68184e-12 -4.69984e-12 -4.68233e-12 -4.6825e-12 5.31087e-12 5.3112e-12 -4.6825e-12 -4.68397e-12 5.3112e-12 5.3114e-12 5.31087e-12 5.3112e-12 3.61678e-11 3.61662e-11 5.3112e-12 5.3114e-12 3.61662e-11 3.61669e-11 -4.68397e-12 -4.68184e-12 5.3114e-12 5.30968e-12 -4.68184e-12 -4.69984e-12 5.30968e-12 5.31309e-12 5.3114e-12 5.30968e-12 3.61669e-11 3.6167e-11 5.30968e-12 5.31309e-12 3.6167e-11 3.61664e-11 3.61865e-11 3.61621e-11 -2.48466e-10 -2.48654e-10 3.61621e-11 3.61665e-11 -2.48654e-10 -2.48596e-10 -2.48466e-10 -2.48654e-10 1.3504e-09 1.35089e-09 -2.48654e-10 -2.48596e-10 1.35089e-09 1.3506e-09 3.61665e-11 3.61662e-11 -2.48596e-10 -2.48616e-10 3.61662e-11 3.61678e-11 -2.48616e-10 -2.48613e-10 -2.48596e-10 -2.48616e-10 1.3506e-09 1.35073e-09 -2.48616e-10 -2.48613e-10 1.35073e-09 1.3507e-09 1.3504e-09 1.35089e-09 -5.36623e-09 -5.36791e-09 1.35089e-09 1.3506e-09 -5.36791e-09 -5.36698e-09 -5.36623e-09 -5.36791e-09 1.70382e-08 1.70405e-08 -5.36791e-09 -5.36698e-09 1.70405e-08 1.70391e-08 1.3506e-09 1.35073e-09 -5.36698e-09 -5.36746e-09 1.35073e-09 1.3507e-09 -5.36746e-09 -5.36728e-09 -5.36698e-09 -5.36746e-09 1.70391e-08 1.704e-08 -5.36746e-09 -5.36728e-09 1.704e-08 1.70396e-08 3.61678e-11 3.61662e-11 -2.48613e-10 -2.48611e-10 3.61662e-11 3.61669e-11 -2.48611e-10 -2.48613e-10 -2.48613e-10 -2.48611e-10 1.3507e-09 1.3507e-09 -2.48611e-10 -2.48613e-10 1.3507e-09 1.35071e-09 3.61669e-11 3.6167e-11 -2.48613e-10 -2.48612e-10 3.6167e-11 3.61664e-11 -2.48612e-10 -2.48612e-10 -2.48613e-10 -2.48612e-10 1.35071e-09 1.3507e-09 -2.48612e-10 -2.48612e-10 1.3507e-09 1.3507e-09 1.3507e-09 1.3507e-09 -5.36728e-09 -5.36732e-09 1.3507e-09 1.35071e-09 -5.36732e-09 -5.36732e-09 -5.36728e-09 -5.36732e-09 1.70396e-08 1.70397e-08 -5.36732e-09 -5.36732e-09 1.70397e-08 1.70397e-08 1.35071e-09 1.3507e-09 -5.36732e-09 -5.36732e-09 1.3507e-09 1.3507e-09 -5.36732e-09 -5.36732e-09 -5.36732e-09 -5.36732e-09 1.70397e-08 1.70397e-08 -5.36732e-09 -5.36732e-09 1.70397e-08 1.70397e-08 -3.33902e-10 4.56855e-09 -5.02904e-08 -2.58916e-08 4.56855e-09 1.3581e-08 -2.58916e-08 -4.56156e-08 -5.02904e-08 -2.58916e-08 -2.43525e-07 -1.02638e-07 -2.58916e-08 -4.56156e-08 -1.02638e-07 4.4036e-08 1.3581e-08 1.66257e-08 -4.56156e-08 -5.04309e-08 1.66257e-08 1.76719e-08 -5.04309e-08 -4.84885e-08 -4.56156e-08 -5.04309e-08 4.4036e-08 7.14146e-08 -5.04309e-08 -4.84885e-08 7.14146e-08 5.58932e-08 -2.43525e-07 -1.02638e-07 1.40269e-07 2.86163e-07 -1.02638e-07 4.4036e-08 2.86163e-07 9.53188e-08 1.40269e-07 2.86163e-07 -4.43275e-06 -2.99267e-06 2.86163e-07 9.53188e-08 -2.99267e-06 -2.04266e-06 4.4036e-08 7.14146e-08 9.53188e-08 5.0086e-08 7.14146e-08 5.58932e-08 5.0086e-08 8.39778e-08 9.53188e-08 5.0086e-08 -2.04266e-06 -1.36698e-06 5.0086e-08 8.39778e-08 -1.36698e-06 -1.30267e-06 1.76719e-08 1.70744e-08 -4.84885e-08 -4.847e-08 1.70744e-08 1.70104e-08 -4.847e-08 -4.83742e-08 -4.84885e-08 -4.847e-08 5.58932e-08 5.3049e-08 -4.847e-08 -4.83742e-08 5.3049e-08 5.30809e-08 1.70104e-08 1.70492e-08 -4.83742e-08 -4.84239e-08 1.70492e-08 1.70382e-08 -4.84239e-08 -4.84317e-08 -4.83742e-08 -4.84239e-08 5.30809e-08 5.33856e-08 -4.84239e-08 -4.84317e-08 5.33856e-08 5.32994e-08 5.58932e-08 5.3049e-08 8.39778e-08 7.37821e-08 5.3049e-08 5.30809e-08 7.37821e-08 7.53258e-08 8.39778e-08 7.37821e-08 -1.30267e-06 -1.32353e-06 7.37821e-08 7.53258e-08 -1.32353e-06 -1.35175e-06 5.30809e-08 5.33856e-08 7.53258e-08 7.53935e-08 5.33856e-08 5.32994e-08 7.53935e-08 7.50417e-08 7.53258e-08 7.53935e-08 -1.35175e-06 -1.34349e-06 7.53935e-08 7.50417e-08 -1.34349e-06 -1.34279e-06 -4.43275e-06 -2.99267e-06 -4.70872e-06 -1.56548e-06 -2.99267e-06 -2.04266e-06 -1.56548e-06 3.89248e-06 -4.70872e-06 -1.56548e-06 -2.40157e-05 3.99677e-06 -1.56548e-06 3.89248e-06 3.99677e-06 3.31625e-06 -2.04266e-06 -1.36698e-06 3.89248e-06 5.4584e-06 -1.36698e-06 -1.30267e-06 5.4584e-06 5.5963e-06 3.89248e-06 5.4584e-06 3.31625e-06 4.7258e-06 5.4584e-06 5.5963e-06 4.7258e-06 4.72685e-06 -2.40157e-05 3.99677e-06 -0.000113948 -5.09718e-05 3.99677e-06 3.31625e-06 -5.09718e-05 -3.8063e-05 -0.000113948 -5.09718e-05 -0.00023 -0.00023 -5.09718e-05 -3.8063e-05 -0.00023 -0.00023 3.31625e-06 4.7258e-06 -3.8063e-05 -3.74865e-05 4.7258e-06 4.72685e-06 -3.74865e-05 -3.78703e-05 -3.8063e-05 -3.74865e-05 -0.00023 -0.00023 -3.74865e-05 -3.78703e-05 -0.00023 -0.00023 -1.30267e-06 -1.32353e-06 5.5963e-06 5.46063e-06 -1.32353e-06 -1.35175e-06 5.46063e-06 5.41555e-06 5.5963e-06 5.46063e-06 4.72685e-06 4.48593e-06 5.46063e-06 5.41555e-06 4.48593e-06 4.52541e-06 -1.35175e-06 -1.34349e-06 5.41555e-06 5.44243e-06 -1.34349e-06 -1.34279e-06 5.44243e-06 5.43792e-06 5.41555e-06 5.44243e-06 4.52541e-06 4.53933e-06 5.44243e-06 5.43792e-06 4.53933e-06 4.52861e-06 4.72685e-06 4.48593e-06 -3.78703e-05 -3.79571e-05 4.48593e-06 4.52541e-06 -3.79571e-05 -3.79659e-05 -3.78703e-05 -3.79571e-05 -0.00023 -0.00023 -3.79571e-05 -3.79659e-05 -0.00023 -0.00023 4.52541e-06 4.53933e-06 -3.79659e-05 -3.79524e-05 4.53933e-06 4.52861e-06 -3.79524e-05 -3.79557e-05 -3.79659e-05 -3.79524e-05 -0.00023 -0.00023 -3.79524e-05 -3.79557e-05 -0.00023 -0.00023 1.70382e-08 1.70405e-08 -4.84317e-08 -4.84196e-08 1.70405e-08 1.70391e-08 -4.84196e-08 -4.84241e-08 -4.84317e-08 -4.84196e-08 5.32994e-08 5.32746e-08 -4.84196e-08 -4.84241e-08 5.32746e-08 5.33004e-08 1.70391e-08 1.704e-08 -4.84241e-08 -4.84238e-08 1.704e-08 1.70396e-08 -4.84238e-08 -4.84232e-08 -4.84241e-08 -4.84238e-08 5.33004e-08 5.32908e-08 -4.84238e-08 -4.84232e-08 5.32908e-08 5.32923e-08 5.32994e-08 5.32746e-08 7.50417e-08 7.52835e-08 5.32746e-08 5.33004e-08 7.52835e-08 7.51841e-08 7.50417e-08 7.52835e-08 -1.34279e-06 -1.34409e-06 7.52835e-08 7.51841e-08 -1.34409e-06 -1.34359e-06 5.33004e-08 5.32908e-08 7.51841e-08 7.52093e-08 5.32908e-08 5.32923e-08 7.52093e-08 7.52077e-08 7.51841e-08 7.52093e-08 -1.34359e-06 -1.34369e-06 7.52093e-08 7.52077e-08 -1.34369e-06 -1.34369e-06 1.70396e-08 1.70397e-08 -4.84232e-08 -4.84236e-08 1.70397e-08 1.70397e-08 -4.84236e-08 -4.84234e-08 -4.84232e-08 -4.84236e-08 5.32923e-08 5.32928e-08 -4.84236e-08 -4.84234e-08 5.32928e-08 5.32923e-08 1.70397e-08 1.70397e-08 -4.84234e-08 -4.84235e-08 1.70397e-08 1.70397e-08 -4.84235e-08 -4.84235e-08 -4.84234e-08 -4.84235e-08 5.32923e-08 5.32925e-08 -4.84235e-08 -4.84235e-08 5.32925e-08 5.32925e-08 5.32923e-08 5.32928e-08 7.52077e-08 7.52055e-08 5.32928e-08 5.32923e-08 7.52055e-08 7.5207e-08 7.52077e-08 7.52055e-08 -1.34369e-06 -1.34368e-06 7.52055e-08 7.5207e-08 -1.34368e-06 -1.34368e-06 5.32923e-08 5.32925e-08 7.5207e-08 7.52064e-08 5.32925e-08 5.32925e-08 7.52064e-08 7.52065e-08 7.5207e-08 7.52064e-08 -1.34368e-06 -1.34368e-06 7.52064e-08 7.52065e-08 -1.34368e-06 -1.34368e-06 -1.34279e-06 -1.34409e-06 5.43792e-06 5.43651e-06 -1.34409e-06 -1.34359e-06 5.43651e-06 5.43771e-06 5.43792e-06 5.43651e-06 4.52861e-06 4.532e-06 5.43651e-06 5.43771e-06 4.532e-06 4.53149e-06 -1.34359e-06 -1.34369e-06 5.43771e-06 5.43727e-06 -1.34369e-06 -1.34369e-06 5.43727e-06 5.43737e-06 5.43771e-06 5.43727e-06 4.53149e-06 4.53141e-06 5.43727e-06 5.43737e-06 4.53141e-06 4.5315e-06 4.52861e-06 4.532e-06 -3.79557e-05 -3.79559e-05 4.532e-06 4.53149e-06 -3.79559e-05 -3.79555e-05 -3.79557e-05 -3.79559e-05 -0.00023 -0.00023 -3.79559e-05 -3.79555e-05 -0.00023 -0.00023 4.53149e-06 4.53141e-06 -3.79555e-05 -3.79557e-05 4.53141e-06 4.5315e-06 -3.79557e-05 -3.79556e-05 -3.79555e-05 -3.79557e-05 -0.00023 -0.00023 -3.79557e-05 -3.79556e-05 -0.00023 -0.00023 -1.34369e-06 -1.34368e-06 5.43737e-06 5.43736e-06 -1.34368e-06 -1.34368e-06 5.43736e-06 5.43736e-06 5.43737e-06 5.43736e-06 4.5315e-06 4.53146e-06 5.43736e-06 5.43736e-06 4.53146e-06 4.53147e-06 -1.34368e-06 -1.34368e-06 5.43736e-06 5.43736e-06 -1.34368e-06 -1.34368e-06 5.43736e-06 5.43736e-06 5.43736e-06 5.43736e-06 4.53147e-06 4.53147e-06 5.43736e-06 5.43736e-06 4.53147e-06 4.53147e-06 4.5315e-06 4.53146e-06 -3.79556e-05 -3.79556e-05 4.53146e-06 4.53147e-06 -3.79556e-05 -3.79556e-05 -3.79556e-05 -3.79556e-05 -0.00023 -0.00023 -3.79556e-05 -3.79556e-05 -0.00023 -0.00023 4.53147e-06 4.53147e-06 -3.79556e-05 -3.79556e-05 4.53147e-06 4.53147e-06 -3.79556e-05 -3.79556e-05 -3.79556e-05 -3.79556e-05 -0.00023 -0.00023 -3.79556e-05 -3.79556e-05 -0.00023 -0.00023 -8.47373e-13 -1.74177e-12 2.32249e-12 2.59314e-12 -1.74177e-12 -1.48025e-12 2.59314e-12 2.50849e-12 2.32249e-12 2.59314e-12 -4.69984e-12 -4.76881e-12 2.59314e-12 2.50849e-12 -4.76881e-12 -4.75149e-12 -1.48025e-12 -1.52844e-12 2.50849e-12 2.51958e-12 -1.52844e-12 -1.53144e-12 2.51958e-12 2.51927e-12 2.50849e-12 2.51958e-12 -4.75149e-12 -4.74996e-12 2.51958e-12 2.51927e-12 -4.74996e-12 -4.75077e-12 -4.69984e-12 -4.76881e-12 5.31309e-12 5.33154e-12 -4.76881e-12 -4.75149e-12 5.33154e-12 5.33112e-12 5.31309e-12 5.33154e-12 3.61664e-11 3.61609e-11 5.33154e-12 5.33112e-12 3.61609e-11 3.61604e-11 -4.75149e-12 -4.74996e-12 5.33112e-12 5.33086e-12 -4.74996e-12 -4.75077e-12 5.33086e-12 5.33123e-12 5.33112e-12 5.33086e-12 3.61604e-11 3.61614e-11 5.33086e-12 5.33123e-12 3.61614e-11 3.61605e-11 -1.53144e-12 -1.52789e-12 2.51927e-12 2.51865e-12 -1.52789e-12 -1.5294e-12 2.51865e-12 2.51858e-12 2.51927e-12 2.51865e-12 -4.75077e-12 -4.7508e-12 2.51865e-12 2.51858e-12 -4.7508e-12 -4.75013e-12 -1.5294e-12 -1.52956e-12 2.51858e-12 2.51977e-12 -1.52956e-12 -1.52674e-12 2.51977e-12 2.51656e-12 2.51858e-12 2.51977e-12 -4.75013e-12 -4.75277e-12 2.51977e-12 2.51656e-12 -4.75277e-12 -4.74776e-12 -4.75077e-12 -4.7508e-12 5.33123e-12 5.33098e-12 -4.7508e-12 -4.75013e-12 5.33098e-12 5.33035e-12 5.33123e-12 5.33098e-12 3.61605e-11 3.6162e-11 5.33098e-12 5.33035e-12 3.6162e-11 3.61602e-11 -4.75013e-12 -4.75277e-12 5.33035e-12 5.33254e-12 -4.75277e-12 -4.74776e-12 5.33254e-12 5.34308e-12 5.33035e-12 5.33254e-12 3.61602e-11 3.6167e-11 5.33254e-12 5.34308e-12 3.6167e-11 3.61126e-11 3.61664e-11 3.61609e-11 -2.48612e-10 -2.48611e-10 3.61609e-11 3.61604e-11 -2.48611e-10 -2.4861e-10 -2.48612e-10 -2.48611e-10 1.3507e-09 1.3507e-09 -2.48611e-10 -2.4861e-10 1.3507e-09 1.3507e-09 3.61604e-11 3.61614e-11 -2.4861e-10 -2.48612e-10 3.61614e-11 3.61605e-11 -2.48612e-10 -2.48609e-10 -2.4861e-10 -2.48612e-10 1.3507e-09 1.3507e-09 -2.48612e-10 -2.48609e-10 1.3507e-09 1.35071e-09 1.3507e-09 1.3507e-09 -5.36732e-09 -5.36732e-09 1.3507e-09 1.3507e-09 -5.36732e-09 -5.36731e-09 -5.36732e-09 -5.36732e-09 1.70397e-08 1.70397e-08 -5.36732e-09 -5.36731e-09 1.70397e-08 1.70397e-08 1.3507e-09 1.3507e-09 -5.36731e-09 -5.36732e-09 1.3507e-09 1.35071e-09 -5.36732e-09 -5.36735e-09 -5.36731e-09 -5.36732e-09 1.70397e-08 1.70396e-08 -5.36732e-09 -5.36735e-09 1.70396e-08 1.70399e-08 3.61605e-11 3.6162e-11 -2.48609e-10 -2.48611e-10 3.6162e-11 3.61602e-11 -2.48611e-10 -2.48612e-10 -2.48609e-10 -2.48611e-10 1.35071e-09 1.35069e-09 -2.48611e-10 -2.48612e-10 1.35069e-09 1.35072e-09 3.61602e-11 3.6167e-11 -2.48612e-10 -2.48637e-10 3.6167e-11 3.61126e-11 -2.48637e-10 -2.48402e-10 -2.48612e-10 -2.48637e-10 1.35072e-09 1.35077e-09 -2.48637e-10 -2.48402e-10 1.35077e-09 1.35034e-09 1.35071e-09 1.35069e-09 -5.36735e-09 -5.36721e-09 1.35069e-09 1.35072e-09 -5.36721e-09 -5.3675e-09 -5.36735e-09 -5.36721e-09 1.70399e-08 1.70392e-08 -5.36721e-09 -5.3675e-09 1.70392e-08 1.70402e-08 1.35072e-09 1.35077e-09 -5.3675e-09 -5.36748e-09 1.35077e-09 1.35034e-09 -5.36748e-09 -5.3657e-09 -5.3675e-09 -5.36748e-09 1.70402e-08 1.70407e-08 -5.36748e-09 -5.3657e-09 1.70407e-08 1.70351e-08 -1.52674e-12 -1.53398e-12 2.51656e-12 2.51839e-12 -1.53398e-12 -1.53032e-12 2.51839e-12 2.53895e-12 2.51656e-12 2.51839e-12 -4.74776e-12 -4.74236e-12 2.51839e-12 2.53895e-12 -4.74236e-12 -4.81071e-12 -1.53032e-12 -1.48911e-12 2.53895e-12 2.46003e-12 -1.48911e-12 -1.63039e-12 2.46003e-12 2.53282e-12 2.53895e-12 2.46003e-12 -4.81071e-12 -4.6417e-12 2.46003e-12 2.53282e-12 -4.6417e-12 -4.70775e-12 -4.74776e-12 -4.74236e-12 5.34308e-12 5.24193e-12 -4.74236e-12 -4.81071e-12 5.24193e-12 5.57968e-12 5.34308e-12 5.24193e-12 3.61126e-11 3.63641e-11 5.24193e-12 5.57968e-12 3.63641e-11 3.57788e-11 -4.81071e-12 -4.6417e-12 5.57968e-12 5.31575e-12 -4.6417e-12 -4.70775e-12 5.31575e-12 3.23814e-12 5.57968e-12 5.31575e-12 3.57788e-11 3.52277e-11 5.31575e-12 3.23814e-12 3.52277e-11 4.28294e-11 -1.63039e-12 -1.66088e-12 2.53282e-12 2.84648e-12 -1.66088e-12 -1.1382e-12 2.84648e-12 2.32326e-12 2.53282e-12 2.84648e-12 -4.70775e-12 -6.16349e-12 2.84648e-12 2.32326e-12 -6.16349e-12 -6.03078e-12 -1.1382e-12 -1.35491e-13 2.32326e-12 4.31692e-13 -1.35491e-13 3.33497e-13 4.31692e-13 1.21419e-12 2.32326e-12 4.31692e-13 -6.03078e-12 3.74366e-12 4.31692e-13 1.21419e-12 3.74366e-12 1.22278e-11 -4.70775e-12 -6.16349e-12 3.23814e-12 1.0241e-11 -6.16349e-12 -6.03078e-12 1.0241e-11 1.48587e-11 3.23814e-12 1.0241e-11 4.28294e-11 1.72308e-11 1.0241e-11 1.48587e-11 1.72308e-11 -7.23157e-12 -6.03078e-12 3.74366e-12 1.48587e-11 -1.44567e-11 3.74366e-12 1.22278e-11 -1.44567e-11 -1.49815e-11 1.48587e-11 -1.44567e-11 -7.23157e-12 1.22572e-10 -1.44567e-11 -1.49815e-11 1.22572e-10 2.3569e-10 3.61126e-11 3.63641e-11 -2.48402e-10 -2.49307e-10 3.63641e-11 3.57788e-11 -2.49307e-10 -2.48076e-10 -2.48402e-10 -2.49307e-10 1.35034e-09 1.35115e-09 -2.49307e-10 -2.48076e-10 1.35115e-09 1.35278e-09 3.57788e-11 3.52277e-11 -2.48076e-10 -2.42688e-10 3.52277e-11 4.28294e-11 -2.42688e-10 -2.78863e-10 -2.48076e-10 -2.42688e-10 1.35278e-09 1.33522e-09 -2.42688e-10 -2.78863e-10 1.33522e-09 1.39995e-09 1.35034e-09 1.35115e-09 -5.3657e-09 -5.36927e-09 1.35115e-09 1.35278e-09 -5.36927e-09 -5.38196e-09 -5.3657e-09 -5.36927e-09 1.70351e-08 1.70401e-08 -5.36927e-09 -5.38196e-09 1.70401e-08 1.70826e-08 1.35278e-09 1.33522e-09 -5.38196e-09 -5.29537e-09 1.33522e-09 1.39995e-09 -5.29537e-09 -5.47138e-09 -5.38196e-09 -5.29537e-09 1.70826e-08 1.69281e-08 -5.29537e-09 -5.47138e-09 1.69281e-08 1.68482e-08 4.28294e-11 1.72308e-11 -2.78863e-10 -2.17391e-10 1.72308e-11 -7.23157e-12 -2.17391e-10 -1.24206e-10 -2.78863e-10 -2.17391e-10 1.39995e-09 1.23529e-09 -2.17391e-10 -1.24206e-10 1.23529e-09 1.10296e-09 -7.23157e-12 1.22572e-10 -1.24206e-10 -3.5083e-10 1.22572e-10 2.3569e-10 -3.5083e-10 -3.36117e-10 -1.24206e-10 -3.5083e-10 1.10296e-09 1.81175e-09 -3.5083e-10 -3.36117e-10 1.81175e-09 2.63934e-09 1.39995e-09 1.23529e-09 -5.47138e-09 -5.68665e-09 1.23529e-09 1.10296e-09 -5.68665e-09 -5.30367e-09 -5.47138e-09 -5.68665e-09 1.68482e-08 1.78671e-08 -5.68665e-09 -5.30367e-09 1.78671e-08 1.8093e-08 1.10296e-09 1.81175e-09 -5.30367e-09 -3.00394e-09 1.81175e-09 2.63934e-09 -3.00394e-09 -7.67738e-10 -5.30367e-09 -3.00394e-09 1.8093e-08 1.00315e-08 -3.00394e-09 -7.67738e-10 1.00315e-08 1.53347e-08 1.70397e-08 1.70397e-08 -4.84235e-08 -4.84235e-08 1.70397e-08 1.70397e-08 -4.84235e-08 -4.84235e-08 -4.84235e-08 -4.84235e-08 5.32925e-08 5.32924e-08 -4.84235e-08 -4.84235e-08 5.32924e-08 5.32926e-08 1.70397e-08 1.70396e-08 -4.84235e-08 -4.84234e-08 1.70396e-08 1.70399e-08 -4.84234e-08 -4.84238e-08 -4.84235e-08 -4.84234e-08 5.32926e-08 5.32921e-08 -4.84234e-08 -4.84238e-08 5.32921e-08 5.3293e-08 5.32925e-08 5.32924e-08 7.52065e-08 7.52066e-08 5.32924e-08 5.32926e-08 7.52066e-08 7.52066e-08 7.52065e-08 7.52066e-08 -1.34368e-06 -1.34368e-06 7.52066e-08 7.52066e-08 -1.34368e-06 -1.34368e-06 5.32926e-08 5.32921e-08 7.52066e-08 7.52058e-08 5.32921e-08 5.3293e-08 7.52058e-08 7.52098e-08 7.52066e-08 7.52058e-08 -1.34368e-06 -1.34368e-06 7.52058e-08 7.52098e-08 -1.34368e-06 -1.34369e-06 1.70399e-08 1.70392e-08 -4.84238e-08 -4.8423e-08 1.70392e-08 1.70402e-08 -4.8423e-08 -4.8423e-08 -4.84238e-08 -4.8423e-08 5.3293e-08 5.32934e-08 -4.8423e-08 -4.8423e-08 5.32934e-08 5.32846e-08 1.70402e-08 1.70407e-08 -4.8423e-08 -4.84294e-08 1.70407e-08 1.70351e-08 -4.84294e-08 -4.8403e-08 -4.8423e-08 -4.84294e-08 5.32846e-08 5.33189e-08 -4.84294e