# vtk DataFile Version 3.0
#This file was generated by the deal.II library on 2022/11/2 at 18:42:22
ASCII
DATASET UNSTRUCTURED_GRID

POINTS 4096 double
0 0.5 0
0.03125 0.5 0
0 0.53125 0
0.03125 0.53125 0
0.03125 0.5 0
0.0625 0.5 0
0.03125 0.53125 0
0.0625 0.53125 0
0 0.53125 0
0.03125 0.53125 0
0 0.5625 0
0.03125 0.5625 0
0.03125 0.53125 0
0.0625 0.53125 0
0.03125 0.5625 0
0.0625 0.5625 0
0.0625 0.5 0
0.09375 0.5 0
0.0625 0.53125 0
0.09375 0.53125 0
0.09375 0.5 0
0.125 0.5 0
0.09375 0.53125 0
0.125 0.53125 0
0.0625 0.53125 0
0.09375 0.53125 0
0.0625 0.5625 0
0.09375 0.5625 0
0.09375 0.53125 0
0.125 0.53125 0
0.09375 0.5625 0
0.125 0.5625 0
0 0.5625 0
0.03125 0.5625 0
0 0.59375 0
0.03125 0.59375 0
0.03125 0.5625 0
0.0625 0.5625 0
0.03125 0.59375 0
0.0625 0.59375 0
0 0.59375 0
0.03125 0.59375 0
0 0.625 0
0.03125 0.625 0
0.03125 0.59375 0
0.0625 0.59375 0
0.03125 0.625 0
0.0625 0.625 0
0.0625 0.5625 0
0.09375 0.5625 0
0.0625 0.59375 0
0.09375 0.59375 0
0.09375 0.5625 0
0.125 0.5625 0
0.09375 0.59375 0
0.125 0.59375 0
0.0625 0.59375 0
0.09375 0.59375 0
0.0625 0.625 0
0.09375 0.625 0
0.09375 0.59375 0
0.125 0.59375 0
0.09375 0.625 0
0.125 0.625 0
0.125 0.5 0
0.15625 0.5 0
0.125 0.53125 0
0.15625 0.53125 0
0.15625 0.5 0
0.1875 0.5 0
0.15625 0.53125 0
0.1875 0.53125 0
0.125 0.53125 0
0.15625 0.53125 0
0.125 0.5625 0
0.15625 0.5625 0
0.15625 0.53125 0
0.1875 0.53125 0
0.15625 0.5625 0
0.1875 0.5625 0
0.1875 0.5 0
0.21875 0.5 0
0.1875 0.53125 0
0.21875 0.53125 0
0.21875 0.5 0
0.25 0.5 0
0.21875 0.53125 0
0.25 0.53125 0
0.1875 0.53125 0
0.21875 0.53125 0
0.1875 0.5625 0
0.21875 0.5625 0
0.21875 0.53125 0
0.25 0.53125 0
0.21875 0.5625 0
0.25 0.5625 0
0.125 0.5625 0
0.15625 0.5625 0
0.125 0.59375 0
0.15625 0.59375 0
0.15625 0.5625 0
0.1875 0.5625 0
0.15625 0.59375 0
0.1875 0.59375 0
0.125 0.59375 0
0.15625 0.59375 0
0.125 0.625 0
0.15625 0.625 0
0.15625 0.59375 0
0.1875 0.59375 0
0.15625 0.625 0
0.1875 0.625 0
0.1875 0.5625 0
0.21875 0.5625 0
0.1875 0.59375 0
0.21875 0.59375 0
0.21875 0.5625 0
0.25 0.5625 0
0.21875 0.59375 0
0.25 0.59375 0
0.1875 0.59375 0
0.21875 0.59375 0
0.1875 0.625 0
0.21875 0.625 0
0.21875 0.59375 0
0.25 0.59375 0
0.21875 0.625 0
0.25 0.625 0
0 0.625 0
0.03125 0.625 0
0 0.65625 0
0.03125 0.65625 0
0.03125 0.625 0
0.0625 0.625 0
0.03125 0.65625 0
0.0625 0.65625 0
0 0.65625 0
0.03125 0.65625 0
0 0.6875 0
0.03125 0.6875 0
0.03125 0.65625 0
0.0625 0.65625 0
0.03125 0.6875 0
0.0625 0.6875 0
0.0625 0.625 0
0.09375 0.625 0
0.0625 0.65625 0
0.09375 0.65625 0
0.09375 0.625 0
0.125 0.625 0
0.09375 0.65625 0
0.125 0.65625 0
0.0625 0.65625 0
0.09375 0.65625 0
0.0625 0.6875 0
0.09375 0.6875 0
0.09375 0.65625 0
0.125 0.65625 0
0.09375 0.6875 0
0.125 0.6875 0
0 0.6875 0
0.03125 0.6875 0
0 0.71875 0
0.03125 0.71875 0
0.03125 0.6875 0
0.0625 0.6875 0
0.03125 0.71875 0
0.0625 0.71875 0
0 0.71875 0
0.03125 0.71875 0
0 0.75 0
0.03125 0.75 0
0.03125 0.71875 0
0.0625 0.71875 0
0.03125 0.75 0
0.0625 0.75 0
0.0625 0.6875 0
0.09375 0.6875 0
0.0625 0.71875 0
0.09375 0.71875 0
0.09375 0.6875 0
0.125 0.6875 0
0.09375 0.71875 0
0.125 0.71875 0
0.0625 0.71875 0
0.09375 0.71875 0
0.0625 0.75 0
0.09375 0.75 0
0.09375 0.71875 0
0.125 0.71875 0
0.09375 0.75 0
0.125 0.75 0
0.125 0.625 0
0.15625 0.625 0
0.125 0.65625 0
0.15625 0.65625 0
0.15625 0.625 0
0.1875 0.625 0
0.15625 0.65625 0
0.1875 0.65625 0
0.125 0.65625 0
0.15625 0.65625 0
0.125 0.6875 0
0.15625 0.6875 0
0.15625 0.65625 0
0.1875 0.65625 0
0.15625 0.6875 0
0.1875 0.6875 0
0.1875 0.625 0
0.21875 0.625 0
0.1875 0.65625 0
0.21875 0.65625 0
0.21875 0.625 0
0.25 0.625 0
0.21875 0.65625 0
0.25 0.65625 0
0.1875 0.65625 0
0.21875 0.65625 0
0.1875 0.6875 0
0.21875 0.6875 0
0.21875 0.65625 0
0.25 0.65625 0
0.21875 0.6875 0
0.25 0.6875 0
0.125 0.6875 0
0.15625 0.6875 0
0.125 0.71875 0
0.15625 0.71875 0
0.15625 0.6875 0
0.1875 0.6875 0
0.15625 0.71875 0
0.1875 0.71875 0
0.125 0.71875 0
0.15625 0.71875 0
0.125 0.75 0
0.15625 0.75 0
0.15625 0.71875 0
0.1875 0.71875 0
0.15625 0.75 0
0.1875 0.75 0
0.1875 0.6875 0
0.21875 0.6875 0
0.1875 0.71875 0
0.21875 0.71875 0
0.21875 0.6875 0
0.25 0.6875 0
0.21875 0.71875 0
0.25 0.71875 0
0.1875 0.71875 0
0.21875 0.71875 0
0.1875 0.75 0
0.21875 0.75 0
0.21875 0.71875 0
0.25 0.71875 0
0.21875 0.75 0
0.25 0.75 0
0.25 0.5 0
0.28125 0.5 0
0.25 0.53125 0
0.28125 0.53125 0
0.28125 0.5 0
0.3125 0.5 0
0.28125 0.53125 0
0.3125 0.53125 0
0.25 0.53125 0
0.28125 0.53125 0
0.25 0.5625 0
0.28125 0.5625 0
0.28125 0.53125 0
0.3125 0.53125 0
0.28125 0.5625 0
0.3125 0.5625 0
0.3125 0.5 0
0.34375 0.5 0
0.3125 0.53125 0
0.34375 0.53125 0
0.34375 0.5 0
0.375 0.5 0
0.34375 0.53125 0
0.375 0.53125 0
0.3125 0.53125 0
0.34375 0.53125 0
0.3125 0.5625 0
0.34375 0.5625 0
0.34375 0.53125 0
0.375 0.53125 0
0.34375 0.5625 0
0.375 0.5625 0
0.25 0.5625 0
0.28125 0.5625 0
0.25 0.59375 0
0.28125 0.59375 0
0.28125 0.5625 0
0.3125 0.5625 0
0.28125 0.59375 0
0.3125 0.59375 0
0.25 0.59375 0
0.28125 0.59375 0
0.25 0.625 0
0.28125 0.625 0
0.28125 0.59375 0
0.3125 0.59375 0
0.28125 0.625 0
0.3125 0.625 0
0.3125 0.5625 0
0.34375 0.5625 0
0.3125 0.59375 0
0.34375 0.59375 0
0.34375 0.5625 0
0.375 0.5625 0
0.34375 0.59375 0
0.375 0.59375 0
0.3125 0.59375 0
0.34375 0.59375 0
0.3125 0.625 0
0.34375 0.625 0
0.34375 0.59375 0
0.375 0.59375 0
0.34375 0.625 0
0.375 0.625 0
0.375 0.5 0
0.40625 0.5 0
0.375 0.53125 0
0.40625 0.53125 0
0.40625 0.5 0
0.4375 0.5 0
0.40625 0.53125 0
0.4375 0.53125 0
0.375 0.53125 0
0.40625 0.53125 0
0.375 0.5625 0
0.40625 0.5625 0
0.40625 0.53125 0
0.4375 0.53125 0
0.40625 0.5625 0
0.4375 0.5625 0
0.4375 0.5 0
0.46875 0.5 0
0.4375 0.53125 0
0.46875 0.53125 0
0.46875 0.5 0
0.5 0.5 0
0.46875 0.53125 0
0.5 0.53125 0
0.4375 0.53125 0
0.46875 0.53125 0
0.4375 0.5625 0
0.46875 0.5625 0
0.46875 0.53125 0
0.5 0.53125 0
0.46875 0.5625 0
0.5 0.5625 0
0.375 0.5625 0
0.40625 0.5625 0
0.375 0.59375 0
0.40625 0.59375 0
0.40625 0.5625 0
0.4375 0.5625 0
0.40625 0.59375 0
0.4375 0.59375 0
0.375 0.59375 0
0.40625 0.59375 0
0.375 0.625 0
0.40625 0.625 0
0.40625 0.59375 0
0.4375 0.59375 0
0.40625 0.625 0
0.4375 0.625 0
0.4375 0.5625 0
0.46875 0.5625 0
0.4375 0.59375 0
0.46875 0.59375 0
0.46875 0.5625 0
0.5 0.5625 0
0.46875 0.59375 0
0.5 0.59375 0
0.4375 0.59375 0
0.46875 0.59375 0
0.4375 0.625 0
0.46875 0.625 0
0.46875 0.59375 0
0.5 0.59375 0
0.46875 0.625 0
0.5 0.625 0
0.25 0.625 0
0.28125 0.625 0
0.25 0.65625 0
0.28125 0.65625 0
0.28125 0.625 0
0.3125 0.625 0
0.28125 0.65625 0
0.3125 0.65625 0
0.25 0.65625 0
0.28125 0.65625 0
0.25 0.6875 0
0.28125 0.6875 0
0.28125 0.65625 0
0.3125 0.65625 0
0.28125 0.6875 0
0.3125 0.6875 0
0.3125 0.625 0
0.34375 0.625 0
0.3125 0.65625 0
0.34375 0.65625 0
0.34375 0.625 0
0.375 0.625 0
0.34375 0.65625 0
0.375 0.65625 0
0.3125 0.65625 0
0.34375 0.65625 0
0.3125 0.6875 0
0.34375 0.6875 0
0.34375 0.65625 0
0.375 0.65625 0
0.34375 0.6875 0
0.375 0.6875 0
0.25 0.6875 0
0.28125 0.6875 0
0.25 0.71875 0
0.28125 0.71875 0
0.28125 0.6875 0
0.3125 0.6875 0
0.28125 0.71875 0
0.3125 0.71875 0
0.25 0.71875 0
0.28125 0.71875 0
0.25 0.75 0
0.28125 0.75 0
0.28125 0.71875 0
0.3125 0.71875 0
0.28125 0.75 0
0.3125 0.75 0
0.3125 0.6875 0
0.34375 0.6875 0
0.3125 0.71875 0
0.34375 0.71875 0
0.34375 0.6875 0
0.375 0.6875 0
0.34375 0.71875 0
0.375 0.71875 0
0.3125 0.71875 0
0.34375 0.71875 0
0.3125 0.75 0
0.34375 0.75 0
0.34375 0.71875 0
0.375 0.71875 0
0.34375 0.75 0
0.375 0.75 0
0.375 0.625 0
0.40625 0.625 0
0.375 0.65625 0
0.40625 0.65625 0
0.40625 0.625 0
0.4375 0.625 0
0.40625 0.65625 0
0.4375 0.65625 0
0.375 0.65625 0
0.40625 0.65625 0
0.375 0.6875 0
0.40625 0.6875 0
0.40625 0.65625 0
0.4375 0.65625 0
0.40625 0.6875 0
0.4375 0.6875 0
0.4375 0.625 0
0.46875 0.625 0
0.4375 0.65625 0
0.46875 0.65625 0
0.46875 0.625 0
0.5 0.625 0
0.46875 0.65625 0
0.5 0.65625 0
0.4375 0.65625 0
0.46875 0.65625 0
0.4375 0.6875 0
0.46875 0.6875 0
0.46875 0.65625 0
0.5 0.65625 0
0.46875 0.6875 0
0.5 0.6875 0
0.375 0.6875 0
0.40625 0.6875 0
0.375 0.71875 0
0.40625 0.71875 0
0.40625 0.6875 0
0.4375 0.6875 0
0.40625 0.71875 0
0.4375 0.71875 0
0.375 0.71875 0
0.40625 0.71875 0
0.375 0.75 0
0.40625 0.75 0
0.40625 0.71875 0
0.4375 0.71875 0
0.40625 0.75 0
0.4375 0.75 0
0.4375 0.6875 0
0.46875 0.6875 0
0.4375 0.71875 0
0.46875 0.71875 0
0.46875 0.6875 0
0.5 0.6875 0
0.46875 0.71875 0
0.5 0.71875 0
0.4375 0.71875 0
0.46875 0.71875 0
0.4375 0.75 0
0.46875 0.75 0
0.46875 0.71875 0
0.5 0.71875 0
0.46875 0.75 0
0.5 0.75 0
0 0.75 0
0.03125 0.75 0
0 0.78125 0
0.03125 0.78125 0
0.03125 0.75 0
0.0625 0.75 0
0.03125 0.78125 0
0.0625 0.78125 0
0 0.78125 0
0.03125 0.78125 0
0 0.8125 0
0.03125 0.8125 0
0.03125 0.78125 0
0.0625 0.78125 0
0.03125 0.8125 0
0.0625 0.8125 0
0.0625 0.75 0
0.09375 0.75 0
0.0625 0.78125 0
0.09375 0.78125 0
0.09375 0.75 0
0.125 0.75 0
0.09375 0.78125 0
0.125 0.78125 0
0.0625 0.78125 0
0.09375 0.78125 0
0.0625 0.8125 0
0.09375 0.8125 0
0.09375 0.78125 0
0.125 0.78125 0
0.09375 0.8125 0
0.125 0.8125 0
0 0.8125 0
0.03125 0.8125 0
0 0.84375 0
0.03125 0.84375 0
0.03125 0.8125 0
0.0625 0.8125 0
0.03125 0.84375 0
0.0625 0.84375 0
0 0.84375 0
0.03125 0.84375 0
0 0.875 0
0.03125 0.875 0
0.03125 0.84375 0
0.0625 0.84375 0
0.03125 0.875 0
0.0625 0.875 0
0.0625 0.8125 0
0.09375 0.8125 0
0.0625 0.84375 0
0.09375 0.84375 0
0.09375 0.8125 0
0.125 0.8125 0
0.09375 0.84375 0
0.125 0.84375 0
0.0625 0.84375 0
0.09375 0.84375 0
0.0625 0.875 0
0.09375 0.875 0
0.09375 0.84375 0
0.125 0.84375 0
0.09375 0.875 0
0.125 0.875 0
0.125 0.75 0
0.15625 0.75 0
0.125 0.78125 0
0.15625 0.78125 0
0.15625 0.75 0
0.1875 0.75 0
0.15625 0.78125 0
0.1875 0.78125 0
0.125 0.78125 0
0.15625 0.78125 0
0.125 0.8125 0
0.15625 0.8125 0
0.15625 0.78125 0
0.1875 0.78125 0
0.15625 0.8125 0
0.1875 0.8125 0
0.1875 0.75 0
0.21875 0.75 0
0.1875 0.78125 0
0.21875 0.78125 0
0.21875 0.75 0
0.25 0.75 0
0.21875 0.78125 0
0.25 0.78125 0
0.1875 0.78125 0
0.21875 0.78125 0
0.1875 0.8125 0
0.21875 0.8125 0
0.21875 0.78125 0
0.25 0.78125 0
0.21875 0.8125 0
0.25 0.8125 0
0.125 0.8125 0
0.15625 0.8125 0
0.125 0.84375 0
0.15625 0.84375 0
0.15625 0.8125 0
[...]
POINT_DATA 4096
SCALARS x_dis double 1
LOOKUP_TABLE default
-2.08852e-14 3.98009e-14 -1.74188e-13 -5.38964e-14 3.98009e-14 1.19508e-13 -5.38964e-14 -3.06618e-13 -1.74188e-13 -5.38964e-14 -1.49816e-12 -5.07185e-13 -5.38964e-14 -3.06618e-13 -5.07185e-13 7.68502e-13 1.19508e-13 1.15845e-13 -3.06618e-13 -2.94914e-13 1.15845e-13 1.20301e-13 -2.94914e-13 -2.96923e-13 -3.06618e-13 -2.94914e-13 7.68502e-13 5.36145e-13 -2.94914e-13 -2.96923e-13 5.36145e-13 5.02901e-13 -1.49816e-12 -5.07185e-13 1.55404e-12 3.11061e-12 -5.07185e-13 7.68502e-13 3.11061e-12 -5.93942e-13 1.55404e-12 3.11061e-12 -3.38272e-11 -2.04236e-11 3.11061e-12 -5.93942e-13 -2.04236e-11 -4.16774e-12 7.68502e-13 5.36145e-13 -5.93942e-13 1.22721e-13 5.36145e-13 5.02901e-13 1.22721e-13 4.62278e-13 -5.93942e-13 1.22721e-13 -4.16774e-12 -8.45435e-12 1.22721e-13 4.62278e-13 -8.45435e-12 -1.00777e-11 1.20301e-13 1.13668e-13 -2.96923e-13 -2.83697e-13 1.13668e-13 1.15555e-13 -2.83697e-13 -2.88801e-13 -2.96923e-13 -2.83697e-13 5.02901e-13 5.0443e-13 -2.83697e-13 -2.88801e-13 5.0443e-13 5.02309e-13 1.15555e-13 1.15771e-13 -2.88801e-13 -2.89152e-13 1.15771e-13 1.15351e-13 -2.89152e-13 -2.87986e-13 -2.88801e-13 -2.89152e-13 5.02309e-13 5.05978e-13 -2.89152e-13 -2.87986e-13 5.05978e-13 5.03741e-13 5.02901e-13 5.0443e-13 4.62278e-13 3.30173e-13 5.0443e-13 5.02309e-13 3.30173e-13 3.57505e-13 4.62278e-13 3.30173e-13 -1.00777e-11 -9.21872e-12 3.30173e-13 3.57505e-13 -9.21872e-12 -9.4842e-12 5.02309e-13 5.05978e-13 3.57505e-13 3.49657e-13 5.05978e-13 5.03741e-13 3.49657e-13 3.53454e-13 3.57505e-13 3.49657e-13 -9.4842e-12 -9.45361e-12 3.49657e-13 3.53454e-13 -9.45361e-12 -9.44361e-12 -3.38272e-11 -2.04236e-11 5.98466e-11 8.32529e-11 -2.04236e-11 -4.16774e-12 8.32529e-11 4.46038e-11 5.98466e-11 8.32529e-11 -5.36415e-10 -3.98866e-10 8.32529e-11 4.46038e-11 -3.98866e-10 -2.4925e-10 -4.16774e-12 -8.45435e-12 4.46038e-11 5.65881e-11 -8.45435e-12 -1.00777e-11 5.65881e-11 6.33607e-11 4.46038e-11 5.65881e-11 -2.4925e-10 -2.88048e-10 5.65881e-11 6.33607e-11 -2.88048e-10 -3.19852e-10 -5.36415e-10 -3.98866e-10 9.18819e-10 1.30903e-09 -3.98866e-10 -2.4925e-10 1.30903e-09 1.17413e-09 9.18819e-10 1.30903e-09 -6.37147e-09 -5.25657e-09 1.30903e-09 1.17413e-09 -5.25657e-09 -4.78175e-09 -2.4925e-10 -2.88048e-10 1.17413e-09 1.24004e-09 -2.88048e-10 -3.19852e-10 1.24004e-09 1.31064e-09 1.17413e-09 1.24004e-09 -4.78175e-09 -4.80837e-09 1.24004e-09 1.31064e-09 -4.80837e-09 -5.13059e-09 -1.00777e-11 -9.21872e-12 6.33607e-11 6.00589e-11 -9.21872e-12 -9.4842e-12 6.00589e-11 6.08118e-11 6.33607e-11 6.00589e-11 -3.19852e-10 -3.06267e-10 6.00589e-11 6.08118e-11 -3.06267e-10 -3.09317e-10 -9.4842e-12 -9.45361e-12 6.08118e-11 6.07623e-11 -9.45361e-12 -9.44361e-12 6.07623e-11 6.07454e-11 6.08118e-11 6.07623e-11 -3.09317e-10 -3.09437e-10 6.07623e-11 6.07454e-11 -3.09437e-10 -3.09174e-10 -3.19852e-10 -3.06267e-10 1.31064e-09 1.27832e-09 -3.06267e-10 -3.09317e-10 1.27832e-09 1.28359e-09 1.31064e-09 1.27832e-09 -5.13059e-09 -5.03978e-09 1.27832e-09 1.28359e-09 -5.03978e-09 -5.04597e-09 -3.09317e-10 -3.09437e-10 1.28359e-09 1.28362e-09 -3.09437e-10 -3.09174e-10 1.28362e-09 1.28356e-09 1.28359e-09 1.28362e-09 -5.04597e-09 -5.05186e-09 1.28362e-09 1.28356e-09 -5.05186e-09 -5.04999e-09 1.15351e-13 1.15549e-13 -2.87986e-13 -2.88598e-13 1.15549e-13 1.15492e-13 -2.88598e-13 -2.88394e-13 -2.87986e-13 -2.88598e-13 5.03741e-13 5.04418e-13 -2.88598e-13 -2.88394e-13 5.04418e-13 5.04334e-13 1.15492e-13 1.15498e-13 -2.88394e-13 -2.88444e-13 1.15498e-13 1.15509e-13 -2.88444e-13 -2.88444e-13 -2.88394e-13 -2.88444e-13 5.04334e-13 5.04319e-13 -2.88444e-13 -2.88444e-13 5.04319e-13 5.0431e-13 5.03741e-13 5.04418e-13 3.53454e-13 3.52151e-13 5.04418e-13 5.04334e-13 3.52151e-13 3.52368e-13 3.53454e-13 3.52151e-13 -9.44361e-12 -9.4524e-12 3.52151e-13 3.52368e-13 -9.4524e-12 -9.44867e-12 5.04334e-13 5.04319e-13 3.52368e-13 3.52378e-13 5.04319e-13 5.0431e-13 3.52378e-13 3.52381e-13 3.52368e-13 3.52378e-13 -9.44867e-12 -9.4497e-12 3.52378e-13 3.52381e-13 -9.4497e-12 -9.4496e-12 1.15509e-13 1.1547e-13 -2.88444e-13 -2.8841e-13 1.1547e-13 1.15824e-13 -2.8841e-13 -2.88159e-13 -2.88444e-13 -2.8841e-13 5.0431e-13 5.04357e-13 -2.8841e-13 -2.88159e-13 5.04357e-13 5.04287e-13 1.15824e-13 1.13518e-13 -2.88159e-13 -2.91644e-13 1.13518e-13 1.05275e-13 -2.91644e-13 -2.88265e-13 -2.88159e-13 -2.91644e-13 5.04287e-13 5.04184e-13 -2.91644e-13 -2.88265e-13 5.04184e-13 5.03196e-13 5.0431e-13 5.04357e-13 3.52381e-13 3.5235e-13 5.04357e-13 5.04287e-13 3.5235e-13 3.52375e-13 3.52381e-13 3.5235e-13 -9.4496e-12 -9.4495e-12 3.5235e-13 3.52375e-13 -9.4495e-12 -9.44958e-12 5.04287e-13 5.04184e-13 3.52375e-13 3.52298e-13 5.04184e-13 5.03196e-13 3.52298e-13 3.51828e-13 3.52375e-13 3.52298e-13 -9.44958e-12 -9.44959e-12 3.52298e-13 3.51828e-13 -9.44959e-12 -9.44942e-12 -9.44361e-12 -9.4524e-12 6.07454e-11 6.07515e-11 -9.4524e-12 -9.44867e-12 6.07515e-11 6.07507e-11 6.07454e-11 6.07515e-11 -3.09174e-10 -3.09269e-10 6.07515e-11 6.07507e-11 -3.09269e-10 -3.09253e-10 -9.44867e-12 -9.4497e-12 6.07507e-11 6.07507e-11 -9.4497e-12 -9.4496e-12 6.07507e-11 6.07507e-11 6.07507e-11 6.07507e-11 -3.09253e-10 -3.09251e-10 6.07507e-11 6.07507e-11 -3.09251e-10 -3.09254e-10 -3.09174e-10 -3.09269e-10 1.28356e-09 1.28342e-09 -3.09269e-10 -3.09253e-10 1.28342e-09 1.28352e-09 1.28356e-09 1.28342e-09 -5.04999e-09 -5.04985e-09 1.28342e-09 1.28352e-09 -5.04985e-09 -5.05023e-09 -3.09253e-10 -3.09251e-10 1.28352e-09 1.28348e-09 -3.09251e-10 -3.09254e-10 1.28348e-09 1.28349e-09 1.28352e-09 1.28348e-09 -5.05023e-09 -5.05003e-09 1.28348e-09 1.28349e-09 -5.05003e-09 -5.0501e-09 -9.4496e-12 -9.4495e-12 6.07507e-11 6.07507e-11 -9.4495e-12 -9.44958e-12 6.07507e-11 6.07507e-11 6.07507e-11 6.07507e-11 -3.09254e-10 -3.09252e-10 6.07507e-11 6.07507e-11 -3.09252e-10 -3.09253e-10 -9.44958e-12 -9.44959e-12 6.07507e-11 6.07507e-11 -9.44959e-12 -9.44942e-12 6.07507e-11 6.07507e-11 6.07507e-11 6.07507e-11 -3.09253e-10 -3.09253e-10 6.07507e-11 6.07507e-11 -3.09253e-10 -3.09253e-10 -3.09254e-10 -3.09252e-10 1.28349e-09 1.28349e-09 -3.09252e-10 -3.09253e-10 1.28349e-09 1.28349e-09 1.28349e-09 1.28349e-09 -5.0501e-09 -5.05008e-09 1.28349e-09 1.28349e-09 -5.05008e-09 -5.05008e-09 -3.09253e-10 -3.09253e-10 1.28349e-09 1.28349e-09 -3.09253e-10 -3.09253e-10 1.28349e-09 1.28349e-09 1.28349e-09 1.28349e-09 -5.05008e-09 -5.05008e-09 1.28349e-09 1.28349e-09 -5.05008e-09 -5.05008e-09 -6.37147e-09 -5.25657e-09 5.93649e-09 1.21501e-08 -5.25657e-09 -4.78175e-09 1.21501e-08 1.73145e-08 5.93649e-09 1.21501e-08 -5.01439e-08 -3.30243e-08 1.21501e-08 1.73145e-08 -3.30243e-08 -4.86518e-08 -4.78175e-09 -4.80837e-09 1.73145e-08 1.62537e-08 -4.80837e-09 -5.13059e-09 1.62537e-08 1.64855e-08 1.73145e-08 1.62537e-08 -4.86518e-08 -4.60587e-08 1.62537e-08 1.64855e-08 -4.60587e-08 -4.68084e-08 -5.01439e-08 -3.30243e-08 -1.08122e-07 -2.5588e-08 -3.30243e-08 -4.86518e-08 -2.5588e-08 1.00807e-07 -1.08122e-07 -2.5588e-08 -7.5297e-08 3.48183e-07 -2.5588e-08 1.00807e-07 3.48183e-07 8.92212e-08 -4.86518e-08 -4.60587e-08 1.00807e-07 9.24968e-08 -4.60587e-08 -4.68084e-08 9.24968e-08 8.39652e-08 1.00807e-07 9.24968e-08 8.92212e-08 3.45874e-08 9.24968e-08 8.39652e-08 3.45874e-08 4.81567e-08 -5.13059e-09 -5.03978e-09 1.64855e-08 1.63794e-08 -5.03978e-09 -5.04597e-09 1.63794e-08 1.63832e-08 1.64855e-08 1.63794e-08 -4.68084e-08 -4.68419e-08 1.63794e-08 1.63832e-08 -4.68419e-08 -4.67593e-08 -5.04597e-09 -5.05186e-09 1.63832e-08 1.63758e-08 -5.05186e-09 -5.04999e-09 1.63758e-08 1.63828e-08 1.63832e-08 1.63758e-08 -4.67593e-08 -4.67847e-08 1.63758e-08 1.63828e-08 -4.67847e-08 -4.6792e-08 -4.68084e-08 -4.68419e-08 8.39652e-08 8.45904e-08 -4.68419e-08 -4.67593e-08 8.45904e-08 8.51464e-08 8.39652e-08 8.45904e-08 4.81567e-08 5.01699e-08 8.45904e-08 8.51464e-08 5.01699e-08 4.89091e-08 -4.67593e-08 -4.67847e-08 8.51464e-08 8.48165e-08 -4.67847e-08 -4.6792e-08 8.48165e-08 8.49083e-08 8.51464e-08 8.48165e-08 4.89091e-08 4.90453e-08 8.48165e-08 8.49083e-08 4.90453e-08 4.91321e-08 -7.5297e-08 3.48183e-07 -3.30022e-06 -2.62676e-06 3.48183e-07 8.92212e-08 -2.62676e-06 -1.63515e-06 -3.30022e-06 -2.62676e-06 1.76761e-06 5.22495e-06 -2.62676e-06 -1.63515e-06 5.22495e-06 8.03206e-06 8.92212e-08 3.45874e-08 -1.63515e-06 -1.22364e-06 3.45874e-08 4.81567e-08 -1.22364e-06 -1.32355e-06 -1.63515e-06 -1.22364e-06 8.03206e-06 8.29068e-06 -1.22364e-06 -1.32355e-06 8.29068e-06 7.90028e-06 1.76761e-06 5.22495e-06 -4.59938e-05 -6.56616e-06 5.22495e-06 8.03206e-06 -6.56616e-06 -4.89403e-06 -4.59938e-05 -6.56616e-06 -0.00015 -0.00015 -6.56616e-06 -4.89403e-06 -0.00015 -0.00015 8.03206e-06 8.29068e-06 -4.89403e-06 -5.98546e-06 8.29068e-06 7.90028e-06 -5.98546e-06 -6.00351e-06 -4.89403e-06 -5.98546e-06 -0.00015 -0.00015 -5.98546e-06 -6.00351e-06 -0.00015 -0.00015 4.81567e-08 5.01699e-08 -1.32355e-06 -1.36244e-06 5.01699e-08 4.89091e-08 -1.36244e-06 -1.33978e-06 -1.32355e-06 -1.36244e-06 7.90028e-06 7.9797e-06 -1.36244e-06 -1.33978e-06 7.9797e-06 7.97956e-06 4.89091e-08 4.90453e-08 -1.33978e-06 -1.34543e-06 4.90453e-08 4.91321e-08 -1.34543e-06 -1.34502e-06 -1.33978e-06 -1.34543e-06 7.97956e-06 7.9729e-06 -1.34543e-06 -1.34502e-06 7.9729e-06 7.97596e-06 7.90028e-06 7.9797e-06 -6.00351e-06 -5.94466e-06 7.9797e-06 7.97956e-06 -5.94466e-06 -5.96538e-06 -6.00351e-06 -5.94466e-06 -0.00015 -0.00015 -5.94466e-06 -5.96538e-06 -0.00015 -0.00015 7.97956e-06 7.9729e-06 -5.96538e-06 -5.96116e-06 7.9729e-06 7.97596e-06 -5.96116e-06 -5.96151e-06 -5.96538e-06 -5.96116e-06 -0.00015 -0.00015 -5.96116e-06 -5.96151e-06 -0.00015 -0.00015 -5.04999e-09 -5.04985e-09 1.63828e-08 1.63785e-08 -5.04985e-09 -5.05023e-09 1.63785e-08 1.63804e-08 1.63828e-08 1.63785e-08 -4.6792e-08 -4.67829e-08 1.63785e-08 1.63804e-08 -4.67829e-08 -4.67876e-08 -5.05023e-09 -5.05003e-09 1.63804e-08 1.63798e-08 -5.05003e-09 -5.0501e-09 1.63798e-08 1.63799e-08 1.63804e-08 1.63798e-08 -4.67876e-08 -4.67859e-08 1.63798e-08 1.63799e-08 -4.67859e-08 -4.67863e-08 -4.6792e-08 -4.67829e-08 8.49083e-08 8.48964e-08 -4.67829e-08 -4.67876e-08 8.48964e-08 8.48935e-08 8.49083e-08 8.48964e-08 4.91321e-08 4.90771e-08 8.48964e-08 8.48935e-08 4.90771e-08 4.90956e-08 -4.67876e-08 -4.67859e-08 8.48935e-08 8.48962e-08 -4.67859e-08 -4.67863e-08 8.48962e-08 8.4895e-08 8.48935e-08 8.48962e-08 4.90956e-08 4.90914e-08 8.48962e-08 8.4895e-08 4.90914e-08 4.90919e-08 -5.0501e-09 -5.05008e-09 1.63799e-08 1.63799e-08 -5.05008e-09 -5.05008e-09 1.63799e-08 1.63799e-08 1.63799e-08 1.63799e-08 -4.67863e-08 -4.67862e-08 1.63799e-08 1.63799e-08 -4.67862e-08 -4.67863e-08 -5.05008e-09 -5.05008e-09 1.63799e-08 1.63799e-08 -5.05008e-09 -5.05008e-09 1.63799e-08 1.63799e-08 1.63799e-08 1.63799e-08 -4.67863e-08 -4.67863e-08 1.63799e-08 1.63799e-08 -4.67863e-08 -4.67863e-08 -4.67863e-08 -4.67862e-08 8.4895e-08 8.48954e-08 -4.67862e-08 -4.67863e-08 8.48954e-08 8.48953e-08 8.4895e-08 8.48954e-08 4.90919e-08 4.9092e-08 8.48954e-08 8.48953e-08 4.9092e-08 4.90919e-08 -4.67863e-08 -4.67863e-08 8.48953e-08 8.48953e-08 -4.67863e-08 -4.67863e-08 8.48953e-08 8.48953e-08 8.48953e-08 8.48953e-08 4.90919e-08 4.90919e-08 8.48953e-08 8.48953e-08 4.90919e-08 4.90919e-08 4.91321e-08 4.90771e-08 -1.34502e-06 -1.3447e-06 4.90771e-08 4.90956e-08 -1.3447e-06 -1.3449e-06 -1.34502e-06 -1.3447e-06 7.97596e-06 7.97505e-06 -1.3447e-06 -1.3449e-06 7.97505e-06 7.97525e-06 4.90956e-08 4.90914e-08 -1.3449e-06 -1.34483e-06 4.90914e-08 4.90919e-08 -1.34483e-06 -1.34485e-06 -1.3449e-06 -1.34483e-06 7.97525e-06 7.97522e-06 -1.34483e-06 -1.34485e-06 7.97522e-06 7.97522e-06 7.97596e-06 7.97505e-06 -5.96151e-06 -5.96165e-06 7.97505e-06 7.97525e-06 -5.96165e-06 -5.96156e-06 -5.96151e-06 -5.96165e-06 -0.00015 -0.00015 -5.96165e-06 -5.96156e-06 -0.00015 -0.00015 7.97525e-06 7.97522e-06 -5.96156e-06 -5.96159e-06 7.97522e-06 7.97522e-06 -5.96159e-06 -5.96158e-06 -5.96156e-06 -5.96159e-06 -0.00015 -0.00015 -5.96159e-06 -5.96158e-06 -0.00015 -0.00015 4.90919e-08 4.9092e-08 -1.34485e-06 -1.34484e-06 4.9092e-08 4.90919e-08 -1.34484e-06 -1.34484e-06 -1.34485e-06 -1.34484e-06 7.97522e-06 7.97522e-06 -1.34484e-06 -1.34484e-06 7.97522e-06 7.97522e-06 4.90919e-08 4.90919e-08 -1.34484e-06 -1.34484e-06 4.90919e-08 4.90919e-08 -1.34484e-06 -1.34484e-06 -1.34484e-06 -1.34484e-06 7.97522e-06 7.97522e-06 -1.34484e-06 -1.34484e-06 7.97522e-06 7.97522e-06 7.97522e-06 7.97522e-06 -5.96158e-06 -5.96159e-06 7.97522e-06 7.97522e-06 -5.96159e-06 -5.96158e-06 -5.96158e-06 -5.96159e-06 -0.00015 -0.00015 -5.96159e-06 -5.96158e-06 -0.00015 -0.00015 7.97522e-06 7.97522e-06 -5.96158e-06 -5.96158e-06 7.97522e-06 7.97522e-06 -5.96158e-06 -5.96158e-06 -5.96158e-06 -5.96158e-06 -0.00015 -0.00015 -5.96158e-06 -5.96158e-06 -0.00015 -0.00015 1.05275e-13 2.75133e-13 -2.88265e-13 -3.33845e-13 2.75133e-13 2.13827e-13 -3.33845e-13 -3.22322e-13 -2.88265e-13 -3.33845e-13 5.03196e-13 5.17038e-13 -3.33845e-13 -3.22322e-13 5.17038e-13 5.15582e-13 2.13827e-13 2.26645e-13 -3.22322e-13 -3.23132e-13 2.26645e-13 2.23584e-13 -3.23132e-13 -3.23552e-13 -3.22322e-13 -3.23132e-13 5.15582e-13 5.15897e-13 -3.23132e-13 -3.23552e-13 5.15897e-13 5.1582e-13 5.03196e-13 5.17038e-13 3.51828e-13 3.48058e-13 5.17038e-13 5.15582e-13 3.48058e-13 3.48709e-13 3.51828e-13 3.48058e-13 -9.44942e-12 -9.44831e-12 3.48058e-13 3.48709e-13 -9.44831e-12 -9.44845e-12 5.15582e-13 5.15897e-13 3.48709e-13 3.48855e-13 5.15897e-13 5.1582e-13 3.48855e-13 3.48756e-13 3.48709e-13 3.48855e-13 -9.44845e-12 -9.44853e-12 3.48855e-13 3.48756e-13 -9.44853e-12 -9.44846e-12 2.23584e-13 2.23991e-13 -3.23552e-13 -3.23324e-13 2.23991e-13 2.23983e-13 -3.23324e-13 -3.23371e-13 -3.23552e-13 -3.23324e-13 5.1582e-13 5.15803e-13 -3.23324e-13 -3.23371e-13 5.15803e-13 5.15731e-13 2.23983e-13 2.24033e-13 -3.23371e-13 -3.23452e-13 2.24033e-13 2.23809e-13 -3.23452e-13 -3.23203e-13 -3.23371e-13 -3.23452e-13 5.15731e-13 5.16012e-13 -3.23452e-13 -3.23203e-13 5.16012e-13 5.15332e-13 5.1582e-13 5.15803e-13 3.48756e-13 3.48696e-13 5.15803e-13 5.15731e-13 3.48696e-13 3.4908e-13 3.48756e-13 3.48696e-13 -9.44846e-12 -9.44835e-12 3.48696e-13 3.4908e-13 -9.44835e-12 -9.44907e-12 5.15731e-13 5.16012e-13 3.4908e-13 3.47991e-13 5.16012e-13 5.15332e-13 3.47991e-13 3.50371e-13 3.4908e-13 3.47991e-13 -9.44907e-12 -9.44684e-12 3.47991e-13 3.50371e-13 -9.44684e-12 -9.45173e-12 -9.44942e-12 -9.44831e-12 6.07507e-11 6.07504e-11 -9.44831e-12 -9.44845e-12 6.07504e-11 6.07503e-11 6.07507e-11 6.07504e-11 -3.09253e-10 -3.09253e-10 6.07504e-11 6.07503e-11 -3.09253e-10 -3.09253e-10 -9.44845e-12 -9.44853e-12 6.07503e-11 6.07505e-11 -9.44853e-12 -9.44846e-12 6.07505e-11 6.07504e-11 6.07503e-11 6.07505e-11 -3.09253e-10 -3.09253e-10 6.07505e-11 6.07504e-11 -3.09253e-10 -3.09253e-10 -3.09253e-10 -3.09253e-10 1.28349e-09 1.28349e-09 -3.09253e-10 -3.09253e-10 1.28349e-09 1.28349e-09 1.28349e-09 1.28349e-09 -5.05008e-09 -5.05008e-09 1.28349e-09 1.28349e-09 -5.05008e-09 -5.05008e-09 -3.09253e-10 -3.09253e-10 1.28349e-09 1.28349e-09 -3.09253e-10 -3.09253e-10 1.28349e-09 1.28349e-09 1.28349e-09 1.28349e-09 -5.05008e-09 -5.05008e-09 1.28349e-09 1.28349e-09 -5.05008e-09 -5.05008e-09 -9.44846e-12 -9.44835e-12 6.07504e-11 6.07498e-11 -9.44835e-12 -9.44907e-12 6.07498e-11 6.0753e-11 6.07504e-11 6.07498e-11 -3.09253e-10 -3.09252e-10 6.07498e-11 6.0753e-11 -3.09252e-10 -3.09255e-10 -9.44907e-12 -9.44684e-12 6.0753e-11 6.0743e-11 -9.44684e-12 -9.45173e-12 6.0743e-11 6.07664e-11 6.0753e-11 6.0743e-11 -3.09255e-10 -3.09245e-10 6.0743e-11 6.07664e-11 -3.09245e-10 -3.09278e-10 -3.09253e-10 -3.09252e-10 1.28349e-09 1.28349e-09 -3.09252e-10 -3.09255e-10 1.28349e-09 1.2835e-09 1.28349e-09 1.28349e-09 -5.05008e-09 -5.05011e-09 1.28349e-09 1.2835e-09 -5.05011e-09 -5.05e-09 -3.09255e-10 -3.09245e-10 1.2835e-09 1.28346e-09 -3.09245e-10 -3.09278e-10 1.28346e-09 1.2836e-09 1.2835e-09 1.28346e-09 -5.05e-09 -5.05027e-09 1.28346e-09 1.2836e-09 -5.05027e-09 -5.04983e-09 2.23809e-13 2.243e-13 -3.23203e-13 -3.23719e-13 2.243e-13 2.23626e-13 -3.23719e-13 -3.22624e-13 -3.23203e-13 -3.23719e-13 5.15332e-13 5.16672e-13 -3.23719e-13 -3.22624e-13 5.16672e-13 5.13105e-13 2.23626e-13 2.24272e-13 -3.22624e-13 -3.26336e-13 2.24272e-13 2.22759e-13 -3.26336e-13 -3.1458e-13 -3.22624e-13 -3.26336e-13 5.13105e-13 5.28461e-13 -3.26336e-13 -3.1458e-13 5.28461e-13 4.76719e-13 5.15332e-13 5.16672e-13 3.50371e-13 3.45164e-13 5.16672e-13 5.13105e-13 3.45164e-13 3.63455e-13 3.50371e-13 3.45164e-13 -9.45173e-12 -9.44093e-12 3.45164e-13 3.63455e-13 -9.44093e-12 -9.48771e-12 5.13105e-13 5.28461e-13 3.63455e-13 2.78623e-13 5.28461e-13 4.76719e-13 2.78623e-13 5.45888e-13 3.63455e-13 2.78623e-13 -9.48771e-12 -9.24689e-12 2.78623e-13 5.45888e-13 -9.24689e-12 -1.00365e-11 2.22759e-13 2.23934e-13 -3.1458e-13 -3.30288e-13 2.23934e-13 2.74104e-13 -3.30288e-13 -4.77767e-13 -3.1458e-13 -3.30288e-13 4.76719e-13 5.25673e-13 -3.30288e-13 -4.77767e-13 5.25673e-13 9.54946e-13 2.74104e-13 6.78039e-14 -4.77767e-13 -1.19967e-14 6.78039e-14 1.19197e-13 -1.19967e-14 3.6817e-13 -4.77767e-13 -1.19967e-14 9.54946e-13 -4.04005e-13 -1.19967e-14 3.6817e-13 -4.04005e-13 -3.18218e-13 4.76719e-13 5.25673e-13 5.45888e-13 1.75609e-13 5.25673e-13 9.54946e-13 1.75609e-13 -1.43236e-12 5.45888e-13 1.75609e-13 -1.00365e-11 -9.1476e-12 1.75609e-13 -1.43236e-12 -9.1476e-12 -5.44099e-12 9.54946e-13 -4.04005e-13 -1.43236e-12 3.91779e-12 -4.04005e-13 -3.18218e-13 3.91779e-12 8.5773e-12 -1.43236e-12 3.91779e-12 -5.44099e-12 -1.81153e-11 3.91779e-12 8.5773e-12 -1.81153e-11 -1.42984e-11 -9.45173e-12 -9.44093e-12 6.07664e-11 6.0713e-11 -9.44093e-12 -9.48771e-12 6.0713e-11 6.09e-11 6.07664e-11 6.0713e-11 -3.09278e-10 -3.09168e-10 6.0713e-11 6.09e-11 -3.09168e-10 -3.09595e-10 -9.48771e-12 -9.24689e-12 6.09e-11 6.00614e-11 -9.24689e-12 -1.00365e-11 6.00614e-11 6.29011e-11 6.09e-11 6.00614e-11 -3.09595e-10 -3.08115e-10 6.00614e-11 6.29011e-11 -3.08115e-10 -3.12082e-10 -3.09278e-10 -3.09168e-10 1.2836e-09 1.28314e-09 -3.09168e-10 -3.09595e-10 1.28314e-09 1.2846e-09 1.2836e-09 1.28314e-09 -5.04983e-09 -5.04992e-09 1.28314e-09 1.2846e-09 -5.04992e-09 -5.05163e-09 -3.09595e-10 -3.08115e-10 1.2846e-09 1.27989e-09 -3.08115e-10 -3.12082e-10 1.27989e-09 1.29475e-09 1.2846e-09 1.27989e-09 -5.05163e-09 -5.05051e-09 1.27989e-09 1.29475e-09 -5.05051e-09 -5.02869e-09 -1.00365e-11 -9.1476e-12 6.29011e-11 5.76307e-11 -9.1476e-12 -5.44099e-12 5.76307e-11 4.94996e-11 6.29011e-11 5.76307e-11 -3.12082e-10 -3.08609e-10 5.76307e-11 4.94996e-11 -3.08609e-10 -3.05465e-10 -5.44099e-12 -1.81153e-11 4.94996e-11 8.99445e-11 -1.81153e-11 -1.42984e-11 8.99445e-11 1.36632e-10 4.94996e-11 8.99445e-11 -3.05465e-10 -3.17856e-10 8.99445e-11 1.36632e-10 -3.17856e-10 -2.2779e-10 -3.12082e-10 -3.08609e-10 1.29475e-09 1.24753e-09 -3.08609e-10 -3.05465e-10 1.24753e-09 1.31726e-09 1.29475e-09 1.24753e-09 -5.02869e-09 -5.09213e-09 1.24753e-09 1.31726e-09 -5.09213e-09 -5.47946e-09 -3.05465e-10 -3.17856e-10 1.31726e-09 1.278e-09 -3.17856e-10 -2.2779e-10 1.278e-09 1.69494e-09 1.31726e-09 1.278e-09 -5.47946e-09 -3.42789e-09 1.278e-09 1.69494e-09 -3.42789e-09 -1.98898e-09 -5.05008e-09 -5.05008e-09 1.63799e-08 1.63799e-08 -5.05008e-09 -5.05008e-09 1.63799e-08 1.63799e-08 1.63799e-08 1.63799e-08 -4.67863e-08 -4.67863e-08 1.63799e-08 1.63799e-08 -4.67863e-08 -4.67863e-08 -5.05008e-09 -5.05008e-09 1.63799e-08 1.63799e-08 -5.05008e-09 -5.05008e-09 1.63799e-08 1.63799e-08 1.63799e-08 1.63799e-08 -4.67863e-08 -4.67863e-08 1.63799e-08 1.63799e-08 -4.67863e-08 -4.67861e-08 -4.67863e-08 -4.67863e-08 8.48953e-08 8.48953e-08 -4.67863e-08 -4.67863e-08 8.48953e-08 8.48953e-08 8.48953e-08 8.48953e-08 4.90919e-08 4.90919e-08 8.48953e-08 8.48953e-08 4.90919e-08 4.9092e-08 -4.67863e-08 -4.67863e-08 8.48953e-08 8.48954e-08 -4.67863e-08 -4.67861e-08 8.48954e-08 8.48951e-08 8.48953e-08 8.48954e-08 4.9092e-08 4.90917e-08 8.48954e-08 8.48951e-08 4.90917e-08 4.90926e-08 -5.05008e-09 -5.05011e-09 1.63799e-08 1.638e-08 -5.05011e-09 -5.05e-09 1.638e-08 1.63798e-08 1.63799e-08 1.638e-08 -4.67861e-08 -4.67867e-08 1.638e-08 1.63798e-08 -4.67867e-08 -4.67849e-08 -5.05e-09 -5.05027e-09 1.63798e-08 1.63798e-08 -5.05027e-09 -5.04983e-09 1.63798e-