# vtk DataFile Version 3.0
#This file was generated by the deal.II library on 2022/11/2 at 18:42:03
ASCII
DATASET UNSTRUCTURED_GRID

POINTS 4096 double
0 0.5 0
0.03125 0.5 0
0 0.53125 0
0.03125 0.53125 0
0.03125 0.5 0
0.0625 0.5 0
0.03125 0.53125 0
0.0625 0.53125 0
0 0.53125 0
0.03125 0.53125 0
0 0.5625 0
0.03125 0.5625 0
0.03125 0.53125 0
0.0625 0.53125 0
0.03125 0.5625 0
0.0625 0.5625 0
0.0625 0.5 0
0.09375 0.5 0
0.0625 0.53125 0
0.09375 0.53125 0
0.09375 0.5 0
0.125 0.5 0
0.09375 0.53125 0
0.125 0.53125 0
0.0625 0.53125 0
0.09375 0.53125 0
0.0625 0.5625 0
0.09375 0.5625 0
0.09375 0.53125 0
0.125 0.53125 0
0.09375 0.5625 0
0.125 0.5625 0
0 0.5625 0
0.03125 0.5625 0
0 0.59375 0
0.03125 0.59375 0
0.03125 0.5625 0
0.0625 0.5625 0
0.03125 0.59375 0
0.0625 0.59375 0
0 0.59375 0
0.03125 0.59375 0
0 0.625 0
0.03125 0.625 0
0.03125 0.59375 0
0.0625 0.59375 0
0.03125 0.625 0
0.0625 0.625 0
0.0625 0.5625 0
0.09375 0.5625 0
0.0625 0.59375 0
0.09375 0.59375 0
0.09375 0.5625 0
0.125 0.5625 0
0.09375 0.59375 0
0.125 0.59375 0
0.0625 0.59375 0
0.09375 0.59375 0
0.0625 0.625 0
0.09375 0.625 0
0.09375 0.59375 0
0.125 0.59375 0
0.09375 0.625 0
0.125 0.625 0
0.125 0.5 0
0.15625 0.5 0
0.125 0.53125 0
0.15625 0.53125 0
0.15625 0.5 0
0.1875 0.5 0
0.15625 0.53125 0
0.1875 0.53125 0
0.125 0.53125 0
0.15625 0.53125 0
0.125 0.5625 0
0.15625 0.5625 0
0.15625 0.53125 0
0.1875 0.53125 0
0.15625 0.5625 0
0.1875 0.5625 0
0.1875 0.5 0
0.21875 0.5 0
0.1875 0.53125 0
0.21875 0.53125 0
0.21875 0.5 0
0.25 0.5 0
0.21875 0.53125 0
0.25 0.53125 0
0.1875 0.53125 0
0.21875 0.53125 0
0.1875 0.5625 0
0.21875 0.5625 0
0.21875 0.53125 0
0.25 0.53125 0
0.21875 0.5625 0
0.25 0.5625 0
0.125 0.5625 0
0.15625 0.5625 0
0.125 0.59375 0
0.15625 0.59375 0
0.15625 0.5625 0
0.1875 0.5625 0
0.15625 0.59375 0
0.1875 0.59375 0
0.125 0.59375 0
0.15625 0.59375 0
0.125 0.625 0
0.15625 0.625 0
0.15625 0.59375 0
0.1875 0.59375 0
0.15625 0.625 0
0.1875 0.625 0
0.1875 0.5625 0
0.21875 0.5625 0
0.1875 0.59375 0
0.21875 0.59375 0
0.21875 0.5625 0
0.25 0.5625 0
0.21875 0.59375 0
0.25 0.59375 0
0.1875 0.59375 0
0.21875 0.59375 0
0.1875 0.625 0
0.21875 0.625 0
0.21875 0.59375 0
0.25 0.59375 0
0.21875 0.625 0
0.25 0.625 0
0 0.625 0
0.03125 0.625 0
0 0.65625 0
0.03125 0.65625 0
0.03125 0.625 0
0.0625 0.625 0
0.03125 0.65625 0
0.0625 0.65625 0
0 0.65625 0
0.03125 0.65625 0
0 0.6875 0
0.03125 0.6875 0
0.03125 0.65625 0
0.0625 0.65625 0
0.03125 0.6875 0
0.0625 0.6875 0
0.0625 0.625 0
0.09375 0.625 0
0.0625 0.65625 0
0.09375 0.65625 0
0.09375 0.625 0
0.125 0.625 0
0.09375 0.65625 0
0.125 0.65625 0
0.0625 0.65625 0
0.09375 0.65625 0
0.0625 0.6875 0
0.09375 0.6875 0
0.09375 0.65625 0
0.125 0.65625 0
0.09375 0.6875 0
0.125 0.6875 0
0 0.6875 0
0.03125 0.6875 0
0 0.71875 0
0.03125 0.71875 0
0.03125 0.6875 0
0.0625 0.6875 0
0.03125 0.71875 0
0.0625 0.71875 0
0 0.71875 0
0.03125 0.71875 0
0 0.75 0
0.03125 0.75 0
0.03125 0.71875 0
0.0625 0.71875 0
0.03125 0.75 0
0.0625 0.75 0
0.0625 0.6875 0
0.09375 0.6875 0
0.0625 0.71875 0
0.09375 0.71875 0
0.09375 0.6875 0
0.125 0.6875 0
0.09375 0.71875 0
0.125 0.71875 0
0.0625 0.71875 0
0.09375 0.71875 0
0.0625 0.75 0
0.09375 0.75 0
0.09375 0.71875 0
0.125 0.71875 0
0.09375 0.75 0
0.125 0.75 0
0.125 0.625 0
0.15625 0.625 0
0.125 0.65625 0
0.15625 0.65625 0
0.15625 0.625 0
0.1875 0.625 0
0.15625 0.65625 0
0.1875 0.65625 0
0.125 0.65625 0
0.15625 0.65625 0
0.125 0.6875 0
0.15625 0.6875 0
0.15625 0.65625 0
0.1875 0.65625 0
0.15625 0.6875 0
0.1875 0.6875 0
0.1875 0.625 0
0.21875 0.625 0
0.1875 0.65625 0
0.21875 0.65625 0
0.21875 0.625 0
0.25 0.625 0
0.21875 0.65625 0
0.25 0.65625 0
0.1875 0.65625 0
0.21875 0.65625 0
0.1875 0.6875 0
0.21875 0.6875 0
0.21875 0.65625 0
0.25 0.65625 0
0.21875 0.6875 0
0.25 0.6875 0
0.125 0.6875 0
0.15625 0.6875 0
0.125 0.71875 0
0.15625 0.71875 0
0.15625 0.6875 0
0.1875 0.6875 0
0.15625 0.71875 0
0.1875 0.71875 0
0.125 0.71875 0
0.15625 0.71875 0
0.125 0.75 0
0.15625 0.75 0
0.15625 0.71875 0
0.1875 0.71875 0
0.15625 0.75 0
0.1875 0.75 0
0.1875 0.6875 0
0.21875 0.6875 0
0.1875 0.71875 0
0.21875 0.71875 0
0.21875 0.6875 0
0.25 0.6875 0
0.21875 0.71875 0
0.25 0.71875 0
0.1875 0.71875 0
0.21875 0.71875 0
0.1875 0.75 0
0.21875 0.75 0
0.21875 0.71875 0
0.25 0.71875 0
0.21875 0.75 0
0.25 0.75 0
0.25 0.5 0
0.28125 0.5 0
0.25 0.53125 0
0.28125 0.53125 0
0.28125 0.5 0
0.3125 0.5 0
0.28125 0.53125 0
0.3125 0.53125 0
0.25 0.53125 0
0.28125 0.53125 0
0.25 0.5625 0
0.28125 0.5625 0
0.28125 0.53125 0
0.3125 0.53125 0
0.28125 0.5625 0
0.3125 0.5625 0
0.3125 0.5 0
0.34375 0.5 0
0.3125 0.53125 0
0.34375 0.53125 0
0.34375 0.5 0
0.375 0.5 0
0.34375 0.53125 0
0.375 0.53125 0
0.3125 0.53125 0
0.34375 0.53125 0
0.3125 0.5625 0
0.34375 0.5625 0
0.34375 0.53125 0
0.375 0.53125 0
0.34375 0.5625 0
0.375 0.5625 0
0.25 0.5625 0
0.28125 0.5625 0
0.25 0.59375 0
0.28125 0.59375 0
0.28125 0.5625 0
0.3125 0.5625 0
0.28125 0.59375 0
0.3125 0.59375 0
0.25 0.59375 0
0.28125 0.59375 0
0.25 0.625 0
0.28125 0.625 0
0.28125 0.59375 0
0.3125 0.59375 0
0.28125 0.625 0
0.3125 0.625 0
0.3125 0.5625 0
0.34375 0.5625 0
0.3125 0.59375 0
0.34375 0.59375 0
0.34375 0.5625 0
0.375 0.5625 0
0.34375 0.59375 0
0.375 0.59375 0
0.3125 0.59375 0
0.34375 0.59375 0
0.3125 0.625 0
0.34375 0.625 0
0.34375 0.59375 0
0.375 0.59375 0
0.34375 0.625 0
0.375 0.625 0
0.375 0.5 0
0.40625 0.5 0
0.375 0.53125 0
0.40625 0.53125 0
0.40625 0.5 0
0.4375 0.5 0
0.40625 0.53125 0
0.4375 0.53125 0
0.375 0.53125 0
0.40625 0.53125 0
0.375 0.5625 0
0.40625 0.5625 0
0.40625 0.53125 0
0.4375 0.53125 0
0.40625 0.5625 0
0.4375 0.5625 0
0.4375 0.5 0
0.46875 0.5 0
0.4375 0.53125 0
0.46875 0.53125 0
0.46875 0.5 0
0.5 0.5 0
0.46875 0.53125 0
0.5 0.53125 0
0.4375 0.53125 0
0.46875 0.53125 0
0.4375 0.5625 0
0.46875 0.5625 0
0.46875 0.53125 0
0.5 0.53125 0
0.46875 0.5625 0
0.5 0.5625 0
0.375 0.5625 0
0.40625 0.5625 0
0.375 0.59375 0
0.40625 0.59375 0
0.40625 0.5625 0
0.4375 0.5625 0
0.40625 0.59375 0
0.4375 0.59375 0
0.375 0.59375 0
0.40625 0.59375 0
0.375 0.625 0
0.40625 0.625 0
0.40625 0.59375 0
0.4375 0.59375 0
0.40625 0.625 0
0.4375 0.625 0
0.4375 0.5625 0
0.46875 0.5625 0
0.4375 0.59375 0
0.46875 0.59375 0
0.46875 0.5625 0
0.5 0.5625 0
0.46875 0.59375 0
0.5 0.59375 0
0.4375 0.59375 0
0.46875 0.59375 0
0.4375 0.625 0
0.46875 0.625 0
0.46875 0.59375 0
0.5 0.59375 0
0.46875 0.625 0
0.5 0.625 0
0.25 0.625 0
0.28125 0.625 0
0.25 0.65625 0
0.28125 0.65625 0
0.28125 0.625 0
0.3125 0.625 0
0.28125 0.65625 0
0.3125 0.65625 0
0.25 0.65625 0
0.28125 0.65625 0
0.25 0.6875 0
0.28125 0.6875 0
0.28125 0.65625 0
0.3125 0.65625 0
0.28125 0.6875 0
0.3125 0.6875 0
0.3125 0.625 0
0.34375 0.625 0
0.3125 0.65625 0
0.34375 0.65625 0
0.34375 0.625 0
0.375 0.625 0
0.34375 0.65625 0
0.375 0.65625 0
0.3125 0.65625 0
0.34375 0.65625 0
0.3125 0.6875 0
0.34375 0.6875 0
0.34375 0.65625 0
0.375 0.65625 0
0.34375 0.6875 0
0.375 0.6875 0
0.25 0.6875 0
0.28125 0.6875 0
0.25 0.71875 0
0.28125 0.71875 0
0.28125 0.6875 0
0.3125 0.6875 0
0.28125 0.71875 0
0.3125 0.71875 0
0.25 0.71875 0
0.28125 0.71875 0
0.25 0.75 0
0.28125 0.75 0
0.28125 0.71875 0
0.3125 0.71875 0
0.28125 0.75 0
0.3125 0.75 0
0.3125 0.6875 0
0.34375 0.6875 0
0.3125 0.71875 0
0.34375 0.71875 0
0.34375 0.6875 0
0.375 0.6875 0
0.34375 0.71875 0
0.375 0.71875 0
0.3125 0.71875 0
0.34375 0.71875 0
0.3125 0.75 0
0.34375 0.75 0
0.34375 0.71875 0
0.375 0.71875 0
0.34375 0.75 0
0.375 0.75 0
0.375 0.625 0
0.40625 0.625 0
0.375 0.65625 0
0.40625 0.65625 0
0.40625 0.625 0
0.4375 0.625 0
0.40625 0.65625 0
0.4375 0.65625 0
0.375 0.65625 0
0.40625 0.65625 0
0.375 0.6875 0
0.40625 0.6875 0
0.40625 0.65625 0
0.4375 0.65625 0
0.40625 0.6875 0
0.4375 0.6875 0
0.4375 0.625 0
0.46875 0.625 0
0.4375 0.65625 0
0.46875 0.65625 0
0.46875 0.625 0
0.5 0.625 0
0.46875 0.65625 0
0.5 0.65625 0
0.4375 0.65625 0
0.46875 0.65625 0
0.4375 0.6875 0
0.46875 0.6875 0
0.46875 0.65625 0
0.5 0.65625 0
0.46875 0.6875 0
0.5 0.6875 0
0.375 0.6875 0
0.40625 0.6875 0
0.375 0.71875 0
0.40625 0.71875 0
0.40625 0.6875 0
0.4375 0.6875 0
0.40625 0.71875 0
0.4375 0.71875 0
0.375 0.71875 0
0.40625 0.71875 0
0.375 0.75 0
0.40625 0.75 0
0.40625 0.71875 0
0.4375 0.71875 0
0.40625 0.75 0
0.4375 0.75 0
0.4375 0.6875 0
0.46875 0.6875 0
0.4375 0.71875 0
0.46875 0.71875 0
0.46875 0.6875 0
0.5 0.6875 0
0.46875 0.71875 0
0.5 0.71875 0
0.4375 0.71875 0
0.46875 0.71875 0
0.4375 0.75 0
0.46875 0.75 0
0.46875 0.71875 0
0.5 0.71875 0
0.46875 0.75 0
0.5 0.75 0
0 0.75 0
0.03125 0.75 0
0 0.78125 0
0.03125 0.78125 0
0.03125 0.75 0
0.0625 0.75 0
0.03125 0.78125 0
0.0625 0.78125 0
0 0.78125 0
0.03125 0.78125 0
0 0.8125 0
0.03125 0.8125 0
0.03125 0.78125 0
0.0625 0.78125 0
0.03125 0.8125 0
0.0625 0.8125 0
0.0625 0.75 0
0.09375 0.75 0
0.0625 0.78125 0
0.09375 0.78125 0
0.09375 0.75 0
0.125 0.75 0
0.09375 0.78125 0
0.125 0.78125 0
0.0625 0.78125 0
0.09375 0.78125 0
0.0625 0.8125 0
0.09375 0.8125 0
0.09375 0.78125 0
0.125 0.78125 0
0.09375 0.8125 0
0.125 0.8125 0
0 0.8125 0
0.03125 0.8125 0
0 0.84375 0
0.03125 0.84375 0
0.03125 0.8125 0
0.0625 0.8125 0
0.03125 0.84375 0
0.0625 0.84375 0
0 0.84375 0
0.03125 0.84375 0
0 0.875 0
0.03125 0.875 0
0.03125 0.84375 0
0.0625 0.84375 0
0.03125 0.875 0
0.0625 0.875 0
0.0625 0.8125 0
0.09375 0.8125 0
0.0625 0.84375 0
0.09375 0.84375 0
0.09375 0.8125 0
0.125 0.8125 0
0.09375 0.84375 0
0.125 0.84375 0
0.0625 0.84375 0
0.09375 0.84375 0
0.0625 0.875 0
0.09375 0.875 0
0.09375 0.84375 0
0.125 0.84375 0
0.09375 0.875 0
0.125 0.875 0
0.125 0.75 0
0.15625 0.75 0
0.125 0.78125 0
0.15625 0.78125 0
0.15625 0.75 0
0.1875 0.75 0
0.15625 0.78125 0
0.1875 0.78125 0
0.125 0.78125 0
0.15625 0.78125 0
0.125 0.8125 0
0.15625 0.8125 0
0.15625 0.78125 0
0.1875 0.78125 0
0.15625 0.8125 0
0.1875 0.8125 0
0.1875 0.75 0
0.21875 0.75 0
0.1875 0.78125 0
0.21875 0.78125 0
0.21875 0.75 0
0.25 0.75 0
0.21875 0.78125 0
0.25 0.78125 0
0.1875 0.78125 0
0.21875 0.78125 0
0.1875 0.8125 0
0.21875 0.8125 0
0.21875 0.78125 0
0.25 0.78125 0
0.21875 0.8125 0
0.25 0.8125 0
0.125 0.8125 0
0.15625 0.8125 0
0.125 0.84375 0
0.15625 0.84375 0
0.15625 0.8125 0
[...]
POINT_DATA 4096
SCALARS x_dis double 1
LOOKUP_TABLE default
-8.19106e-14 -2.60472e-14 7.94884e-14 1.77505e-13 -2.60472e-14 4.92627e-14 1.77505e-13 -5.64657e-14 7.94884e-14 1.77505e-13 -1.89946e-12 -1.12586e-12 1.77505e-13 -5.64657e-14 -1.12586e-12 -1.20934e-13 4.92627e-14 3.16821e-14 -5.64657e-14 -1.93762e-15 3.16821e-14 3.2358e-14 -1.93762e-15 7.82189e-15 -5.64657e-14 -1.93762e-15 -1.20934e-13 -4.37155e-13 -1.93762e-15 7.82189e-15 -4.37155e-13 -4.91854e-13 -1.89946e-12 -1.12586e-12 3.46081e-12 4.89559e-12 -1.12586e-12 -1.20934e-13 4.89559e-12 2.14984e-12 3.46081e-12 4.89559e-12 -3.22214e-11 -2.32392e-11 4.89559e-12 2.14984e-12 -2.32392e-11 -1.26208e-11 -1.20934e-13 -4.37155e-13 2.14984e-12 3.08006e-12 -4.37155e-13 -4.91854e-13 3.08006e-12 3.39787e-12 2.14984e-12 3.08006e-12 -1.26208e-11 -1.63322e-11 3.08006e-12 3.39787e-12 -1.63322e-11 -1.78671e-11 3.2358e-14 3.14899e-14 7.82189e-15 2.9001e-15 3.14899e-14 3.14238e-14 2.9001e-15 4.51418e-15 7.82189e-15 2.9001e-15 -4.91854e-13 -4.44222e-13 2.9001e-15 4.51418e-15 -4.44222e-13 -4.64862e-13 3.14238e-14 3.18653e-14 4.51418e-15 3.37334e-15 3.18653e-14 3.15572e-14 3.37334e-15 4.07792e-15 4.51418e-15 3.37334e-15 -4.64862e-13 -4.58137e-13 3.37334e-15 4.07792e-15 -4.58137e-13 -4.59753e-13 -4.91854e-13 -4.44222e-13 3.39787e-12 3.18357e-12 -4.44222e-13 -4.64862e-13 3.18357e-12 3.25402e-12 3.39787e-12 3.18357e-12 -1.78671e-11 -1.68624e-11 3.18357e-12 3.25402e-12 -1.68624e-11 -1.72125e-11 -4.64862e-13 -4.58137e-13 3.25402e-12 3.23911e-12 -4.58137e-13 -4.59753e-13 3.23911e-12 3.24103e-12 3.25402e-12 3.23911e-12 -1.72125e-11 -1.7157e-11 3.23911e-12 3.24103e-12 -1.7157e-11 -1.71492e-11 -3.22214e-11 -2.32392e-11 6.21916e-11 8.46066e-11 -2.32392e-11 -1.26208e-11 8.46066e-11 6.45668e-11 6.21916e-11 8.46066e-11 -4.32181e-10 -3.49356e-10 8.46066e-11 6.45668e-11 -3.49356e-10 -2.79712e-10 -1.26208e-11 -1.63322e-11 6.45668e-11 7.36167e-11 -1.63322e-11 -1.78671e-11 7.36167e-11 7.85042e-11 6.45668e-11 7.36167e-11 -2.79712e-10 -3.02982e-10 7.36167e-11 7.85042e-11 -3.02982e-10 -3.25877e-10 -4.32181e-10 -3.49356e-10 6.79997e-10 1.04038e-09 -3.49356e-10 -2.79712e-10 1.04038e-09 1.13195e-09 6.79997e-10 1.04038e-09 -4.4318e-09 -3.61423e-09 1.04038e-09 1.13195e-09 -3.61423e-09 -3.96173e-09 -2.79712e-10 -3.02982e-10 1.13195e-09 1.13426e-09 -3.02982e-10 -3.25877e-10 1.13426e-09 1.17438e-09 1.13195e-09 1.13426e-09 -3.96173e-09 -3.87136e-09 1.13426e-09 1.17438e-09 -3.87136e-09 -4.0466e-09 -1.78671e-11 -1.68624e-11 7.85042e-11 7.55636e-11 -1.68624e-11 -1.72125e-11 7.55636e-11 7.63811e-11 7.85042e-11 7.55636e-11 -3.25877e-10 -3.14952e-10 7.55636e-11 7.63811e-11 -3.14952e-10 -3.17772e-10 -1.72125e-11 -1.7157e-11 7.63811e-11 7.62871e-11 -1.7157e-11 -1.71492e-11 7.62871e-11 7.6273e-11 7.63811e-11 7.62871e-11 -3.17772e-10 -3.17694e-10 7.62871e-11 7.6273e-11 -3.17694e-10 -3.17502e-10 -3.25877e-10 -3.14952e-10 1.17438e-09 1.15365e-09 -3.14952e-10 -3.17772e-10 1.15365e-09 1.15741e-09 1.17438e-09 1.15365e-09 -4.0466e-09 -3.99469e-09 1.15365e-09 1.15741e-09 -3.99469e-09 -3.99858e-09 -3.17772e-10 -3.17694e-10 1.15741e-09 1.15728e-09 -3.17694e-10 -3.17502e-10 1.15728e-09 1.15723e-09 1.15741e-09 1.15728e-09 -3.99858e-09 -4.00222e-09 1.15728e-09 1.15723e-09 -4.00222e-09 -4.00075e-09 3.15572e-14 3.16787e-14 4.07792e-15 3.79224e-15 3.16787e-14 3.16508e-14 3.79224e-15 3.86844e-15 4.07792e-15 3.79224e-15 -4.59753e-13 -4.5968e-13 3.79224e-15 3.86844e-15 -4.5968e-13 -4.59499e-13 3.16508e-14 3.16478e-14 3.86844e-15 3.86087e-15 3.16478e-14 3.16616e-14 3.86087e-15 3.84245e-15 3.86844e-15 3.86087e-15 -4.59499e-13 -4.59617e-13 3.86087e-15 3.84245e-15 -4.59617e-13 -4.59571e-13 -4.59753e-13 -4.5968e-13 3.24103e-12 3.24133e-12 -4.5968e-13 -4.59499e-13 3.24133e-12 3.24094e-12 3.24103e-12 3.24133e-12 -1.71492e-11 -1.71593e-11 3.24133e-12 3.24094e-12 -1.71593e-11 -1.71546e-11 -4.59499e-13 -4.59617e-13 3.24094e-12 3.24113e-12 -4.59617e-13 -4.59571e-13 3.24113e-12 3.24107e-12 3.24094e-12 3.24113e-12 -1.71546e-11 -1.71561e-11 3.24113e-12 3.24107e-12 -1.71561e-11 -1.71558e-11 3.16616e-14 3.16184e-14 3.84245e-15 3.8779e-15 3.16184e-14 3.19416e-14 3.8779e-15 4.1404e-15 3.84245e-15 3.8779e-15 -4.59571e-13 -4.59593e-13 3.8779e-15 4.1404e-15 -4.59593e-13 -4.5954e-13 3.19416e-14 3.02469e-14 4.1404e-15 1.21412e-15 3.02469e-14 2.28847e-14 1.21412e-15 4.63234e-15 4.1404e-15 1.21412e-15 -4.5954e-13 -4.59671e-13 1.21412e-15 4.63234e-15 -4.59671e-13 -4.60846e-13 -4.59571e-13 -4.59593e-13 3.24107e-12 3.24108e-12 -4.59593e-13 -4.5954e-13 3.24108e-12 3.24105e-12 3.24107e-12 3.24108e-12 -1.71558e-11 -1.71558e-11 3.24108e-12 3.24105e-12 -1.71558e-11 -1.71558e-11 -4.5954e-13 -4.59671e-13 3.24105e-12 3.24105e-12 -4.59671e-13 -4.60846e-13 3.24105e-12 3.24074e-12 3.24105e-12 3.24105e-12 -1.71558e-11 -1.71558e-11 3.24105e-12 3.24074e-12 -1.71558e-11 -1.71557e-11 -1.71492e-11 -1.71593e-11 7.6273e-11 7.62819e-11 -1.71593e-11 -1.71546e-11 7.62819e-11 7.62803e-11 7.6273e-11 7.62819e-11 -3.17502e-10 -3.17588e-10 7.62819e-11 7.62803e-11 -3.17588e-10 -3.17569e-10 -1.71546e-11 -1.71561e-11 7.62803e-11 7.62801e-11 -1.71561e-11 -1.71558e-11 7.62801e-11 7.62804e-11 7.62803e-11 7.62801e-11 -3.17569e-10 -3.17569e-10 7.62801e-11 7.62804e-11 -3.17569e-10 -3.17571e-10 -3.17502e-10 -3.17588e-10 1.15723e-09 1.15714e-09 -3.17588e-10 -3.17569e-10 1.15714e-09 1.15722e-09 1.15723e-09 1.15714e-09 -4.00075e-09 -4.00084e-09 1.15714e-09 1.15722e-09 -4.00084e-09 -4.00103e-09 -3.17569e-10 -3.17569e-10 1.15722e-09 1.15718e-09 -3.17569e-10 -3.17571e-10 1.15718e-09 1.15719e-09 1.15722e-09 1.15718e-09 -4.00103e-09 -4.0009e-09 1.15718e-09 1.15719e-09 -4.0009e-09 -4.00096e-09 -1.71558e-11 -1.71558e-11 7.62804e-11 7.62802e-11 -1.71558e-11 -1.71558e-11 7.62802e-11 7.62803e-11 7.62804e-11 7.62802e-11 -3.17571e-10 -3.1757e-10 7.62802e-11 7.62803e-11 -3.1757e-10 -3.17571e-10 -1.71558e-11 -1.71558e-11 7.62803e-11 7.62803e-11 -1.71558e-11 -1.71557e-11 7.62803e-11 7.62803e-11 7.62803e-11 7.62803e-11 -3.17571e-10 -3.1757e-10 7.62803e-11 7.62803e-11 -3.1757e-10 -3.1757e-10 -3.17571e-10 -3.1757e-10 1.15719e-09 1.15719e-09 -3.1757e-10 -3.17571e-10 1.15719e-09 1.15719e-09 1.15719e-09 1.15719e-09 -4.00096e-09 -4.00094e-09 1.15719e-09 1.15719e-09 -4.00094e-09 -4.00094e-09 -3.17571e-10 -3.1757e-10 1.15719e-09 1.15719e-09 -3.1757e-10 -3.1757e-10 1.15719e-09 1.15719e-09 1.15719e-09 1.15719e-09 -4.00094e-09 -4.00094e-09 1.15719e-09 1.15719e-09 -4.00094e-09 -4.00094e-09 -4.4318e-09 -3.61423e-09 1.25923e-09 6.64521e-09 -3.61423e-09 -3.96173e-09 6.64521e-09 1.27674e-08 1.25923e-09 6.64521e-09 -2.73834e-08 -1.00006e-08 6.64521e-09 1.27674e-08 -1.00006e-08 -2.79726e-08 -3.96173e-09 -3.87136e-09 1.27674e-08 1.15248e-08 -3.87136e-09 -4.0466e-09 1.15248e-08 1.14577e-08 1.27674e-08 1.15248e-08 -2.79726e-08 -2.65194e-08 1.15248e-08 1.14577e-08 -2.65194e-08 -2.60371e-08 -2.73834e-08 -1.00006e-08 -1.3609e-07 -7.3934e-08 -1.00006e-08 -2.79726e-08 -7.3934e-08 2.77573e-08 -1.3609e-07 -7.3934e-08 8.24733e-08 4.51361e-07 -7.3934e-08 2.77573e-08 4.51361e-07 2.66204e-07 -2.79726e-08 -2.65194e-08 2.77573e-08 2.37941e-08 -2.65194e-08 -2.60371e-08 2.37941e-08 1.51922e-08 2.77573e-08 2.37941e-08 2.66204e-07 2.18167e-07 2.37941e-08 1.51922e-08 2.18167e-07 2.313e-07 -4.0466e-09 -3.99469e-09 1.14577e-08 1.14706e-08 -3.99469e-09 -3.99858e-09 1.14706e-08 1.14572e-08 1.14577e-08 1.14706e-08 -2.60371e-08 -2.6265e-08 1.14706e-08 1.14572e-08 -2.6265e-08 -2.62125e-08 -3.99858e-09 -4.00222e-09 1.14572e-08 1.14522e-08 -4.00222e-09 -4.00075e-09 1.14522e-08 1.14575e-08 1.14572e-08 1.14522e-08 -2.62125e-08 -2.62216e-08 1.14522e-08 1.14575e-08 -2.62216e-08 -2.62254e-08 -2.60371e-08 -2.6265e-08 1.51922e-08 1.63007e-08 -2.6265e-08 -2.62125e-08 1.63007e-08 1.67343e-08 1.51922e-08 1.63007e-08 2.313e-07 2.33158e-07 1.63007e-08 1.67343e-08 2.33158e-07 2.31563e-07 -2.62125e-08 -2.62216e-08 1.67343e-08 1.64011e-08 -2.62216e-08 -2.62254e-08 1.64011e-08 1.65108e-08 1.67343e-08 1.64011e-08 2.31563e-07 2.31945e-07 1.64011e-08 1.65108e-08 2.31945e-07 2.31944e-07 8.24733e-08 4.51361e-07 -3.00637e-06 -2.36445e-06 4.51361e-07 2.66204e-07 -2.36445e-06 -1.82046e-06 -3.00637e-06 -2.36445e-06 2.21472e-06 4.36178e-06 -2.36445e-06 -1.82046e-06 4.36178e-06 7.28601e-06 2.66204e-07 2.18167e-07 -1.82046e-06 -1.4928e-06 2.18167e-07 2.313e-07 -1.4928e-06 -1.59081e-06 -1.82046e-06 -1.4928e-06 7.28601e-06 7.33911e-06 -1.4928e-06 -1.59081e-06 7.33911e-06 7.00372e-06 2.21472e-06 4.36178e-06 -3.77255e-05 -2.45212e-06 4.36178e-06 7.28601e-06 -2.45212e-06 -1.57548e-06 -3.77255e-05 -2.45212e-06 -0.00014 -0.00014 -2.45212e-06 -1.57548e-06 -0.00014 -0.00014 7.28601e-06 7.33911e-06 -1.57548e-06 -2.62559e-06 7.33911e-06 7.00372e-06 -2.62559e-06 -2.56815e-06 -1.57548e-06 -2.62559e-06 -0.00014 -0.00014 -2.62559e-06 -2.56815e-06 -0.00014 -0.00014 2.313e-07 2.33158e-07 -1.59081e-06 -1.61056e-06 2.33158e-07 2.31563e-07 -1.61056e-06 -1.59404e-06 -1.59081e-06 -1.61056e-06 7.00372e-06 7.09588e-06 -1.61056e-06 -1.59404e-06 7.09588e-06 7.08428e-06 2.31563e-07 2.31945e-07 -1.59404e-06 -1.59935e-06 2.31945e-07 2.31944e-07 -1.59935e-06 -1.59841e-06 -1.59404e-06 -1.59935e-06 7.08428e-06 7.08198e-06 -1.59935e-06 -1.59841e-06 7.08198e-06 7.08394e-06 7.00372e-06 7.09588e-06 -2.56815e-06 -2.5259e-06 7.09588e-06 7.08428e-06 -2.5259e-06 -2.54665e-06 -2.56815e-06 -2.5259e-06 -0.00014 -0.00014 -2.5259e-06 -2.54665e-06 -0.00014 -0.00014 7.08428e-06 7.08198e-06 -2.54665e-06 -2.54095e-06 7.08198e-06 7.08394e-06 -2.54095e-06 -2.54198e-06 -2.54665e-06 -2.54095e-06 -0.00014 -0.00014 -2.54095e-06 -2.54198e-06 -0.00014 -0.00014 -4.00075e-09 -4.00084e-09 1.14575e-08 1.14544e-08 -4.00084e-09 -4.00103e-09 1.14544e-08 1.14557e-08 1.14575e-08 1.14544e-08 -2.62254e-08 -2.62215e-08 1.14544e-08 1.14557e-08 -2.62215e-08 -2.62236e-08 -4.00103e-09 -4.0009e-09 1.14557e-08 1.14553e-08 -4.0009e-09 -4.00096e-09 1.14553e-08 1.14554e-08 1.14557e-08 1.14553e-08 -2.62236e-08 -2.62228e-08 1.14553e-08 1.14554e-08 -2.62228e-08 -2.6223e-08 -2.62254e-08 -2.62215e-08 1.65108e-08 1.64898e-08 -2.62215e-08 -2.62236e-08 1.64898e-08 1.649e-08 1.65108e-08 1.64898e-08 2.31944e-07 2.31906e-07 1.64898e-08 1.649e-08 2.31906e-07 2.31925e-07 -2.62236e-08 -2.62228e-08 1.649e-08 1.64919e-08 -2.62228e-08 -2.6223e-08 1.64919e-08 1.64908e-08 1.649e-08 1.64919e-08 2.31925e-07 2.31919e-07 1.64919e-08 1.64908e-08 2.31919e-07 2.31921e-07 -4.00096e-09 -4.00094e-09 1.14554e-08 1.14554e-08 -4.00094e-09 -4.00094e-09 1.14554e-08 1.14554e-08 1.14554e-08 1.14554e-08 -2.6223e-08 -2.6223e-08 1.14554e-08 1.14554e-08 -2.6223e-08 -2.6223e-08 -4.00094e-09 -4.00094e-09 1.14554e-08 1.14554e-08 -4.00094e-09 -4.00094e-09 1.14554e-08 1.14554e-08 1.14554e-08 1.14554e-08 -2.6223e-08 -2.6223e-08 1.14554e-08 1.14554e-08 -2.6223e-08 -2.6223e-08 -2.6223e-08 -2.6223e-08 1.64908e-08 1.64912e-08 -2.6223e-08 -2.6223e-08 1.64912e-08 1.64911e-08 1.64908e-08 1.64912e-08 2.31921e-07 2.3192e-07 1.64912e-08 1.64911e-08 2.3192e-07 2.3192e-07 -2.6223e-08 -2.6223e-08 1.64911e-08 1.64911e-08 -2.6223e-08 -2.6223e-08 1.64911e-08 1.64911e-08 1.64911e-08 1.64911e-08 2.3192e-07 2.3192e-07 1.64911e-08 1.64911e-08 2.3192e-07 2.3192e-07 2.31944e-07 2.31906e-07 -1.59841e-06 -1.59839e-06 2.31906e-07 2.31925e-07 -1.59839e-06 -1.59848e-06 -1.59841e-06 -1.59839e-06 7.08394e-06 7.0832e-06 -1.59839e-06 -1.59848e-06 7.0832e-06 7.0834e-06 2.31925e-07 2.31919e-07 -1.59848e-06 -1.59844e-06 2.31919e-07 2.31921e-07 -1.59844e-06 -1.59845e-06 -1.59848e-06 -1.59844e-06 7.0834e-06 7.08336e-06 -1.59844e-06 -1.59845e-06 7.08336e-06 7.08337e-06 7.08394e-06 7.0832e-06 -2.54198e-06 -2.54192e-06 7.0832e-06 7.0834e-06 -2.54192e-06 -2.54188e-06 -2.54198e-06 -2.54192e-06 -0.00014 -0.00014 -2.54192e-06 -2.54188e-06 -0.00014 -0.00014 7.0834e-06 7.08336e-06 -2.54188e-06 -2.5419e-06 7.08336e-06 7.08337e-06 -2.5419e-06 -2.54189e-06 -2.54188e-06 -2.5419e-06 -0.00014 -0.00014 -2.5419e-06 -2.54189e-06 -0.00014 -0.00014 2.31921e-07 2.3192e-07 -1.59845e-06 -1.59845e-06 2.3192e-07 2.3192e-07 -1.59845e-06 -1.59845e-06 -1.59845e-06 -1.59845e-06 7.08337e-06 7.08337e-06 -1.59845e-06 -1.59845e-06 7.08337e-06 7.08336e-06 2.3192e-07 2.3192e-07 -1.59845e-06 -1.59845e-06 2.3192e-07 2.3192e-07 -1.59845e-06 -1.59845e-06 -1.59845e-06 -1.59845e-06 7.08336e-06 7.08337e-06 -1.59845e-06 -1.59845e-06 7.08337e-06 7.08336e-06 7.08337e-06 7.08337e-06 -2.54189e-06 -2.5419e-06 7.08337e-06 7.08336e-06 -2.5419e-06 -2.54189e-06 -2.54189e-06 -2.5419e-06 -0.00014 -0.00014 -2.5419e-06 -2.54189e-06 -0.00014 -0.00014 7.08336e-06 7.08337e-06 -2.54189e-06 -2.54189e-06 7.08337e-06 7.08336e-06 -2.54189e-06 -2.54189e-06 -2.54189e-06 -2.54189e-06 -0.00014 -0.00014 -2.54189e-06 -2.54189e-06 -0.00014 -0.00014 2.28847e-14 8.46943e-14 4.63234e-15 -1.57401e-14 8.46943e-14 4.88941e-14 -1.57401e-14 -6.68493e-15 4.63234e-15 -1.57401e-14 -4.60846e-13 -4.53263e-13 -1.57401e-14 -6.68493e-15 -4.53263e-13 -4.54438e-13 4.88941e-14 5.79031e-14 -6.68493e-15 -8.10255e-15 5.79031e-14 5.52029e-14 -8.10255e-15 -8.1385e-15 -6.68493e-15 -8.10255e-15 -4.54438e-13 -4.54008e-13 -8.10255e-15 -8.1385e-15 -4.54008e-13 -4.54162e-13 -4.60846e-13 -4.53263e-13 3.24074e-12 3.23834e-12 -4.53263e-13 -4.54438e-13 3.23834e-12 3.23902e-12 3.24074e-12 3.23834e-12 -1.71557e-11 -1.71549e-11 3.23834e-12 3.23902e-12 -1.71549e-11 -1.71551e-11 -4.54438e-13 -4.54008e-13 3.23902e-12 3.23901e-12 -4.54008e-13 -4.54162e-13 3.23901e-12 3.239e-12 3.23902e-12 3.23901e-12 -1.71551e-11 -1.71551e-11 3.23901e-12 3.239e-12 -1.71551e-11 -1.71551e-11 5.52029e-14 5.57455e-14 -8.1385e-15 -8.03212e-15 5.57455e-14 5.56445e-14 -8.03212e-15 -8.03984e-15 -8.1385e-15 -8.03212e-15 -4.54162e-13 -4.54137e-13 -8.03212e-15 -8.03984e-15 -4.54137e-13 -4.5423e-13 5.56445e-14 5.57232e-14 -8.03984e-15 -8.13913e-15 5.57232e-14 5.55301e-14 -8.13913e-15 -7.88452e-15 -8.03984e-15 -8.13913e-15 -4.5423e-13 -4.53963e-13 -8.13913e-15 -7.88452e-15 -4.53963e-13 -4.54542e-13 -4.54162e-13 -4.54137e-13 3.239e-12 3.23886e-12 -4.54137e-13 -4.5423e-13 3.23886e-12 3.23935e-12 3.239e-12 3.23886e-12 -1.71551e-11 -1.71549e-11 3.23886e-12 3.23935e-12 -1.71549e-11 -1.71557e-11 -4.5423e-13 -4.53963e-13 3.23935e-12 3.23814e-12 -4.53963e-13 -4.54542e-13 3.23814e-12 3.24072e-12 3.23935e-12 3.23814e-12 -1.71557e-11 -1.71535e-11 3.23814e-12 3.24072e-12 -1.71535e-11 -1.71585e-11 -1.71557e-11 -1.71549e-11 7.62803e-11 7.628e-11 -1.71549e-11 -1.71551e-11 7.628e-11 7.628e-11 7.62803e-11 7.628e-11 -3.1757e-10 -3.1757e-10 7.628e-11 7.628e-11 -3.1757e-10 -3.1757e-10 -1.71551e-11 -1.71551e-11 7.628e-11 7.62801e-11 -1.71551e-11 -1.71551e-11 7.62801e-11 7.62802e-11 7.628e-11 7.62801e-11 -3.1757e-10 -3.1757e-10 7.62801e-11 7.62802e-11 -3.1757e-10 -3.1757e-10 -3.1757e-10 -3.1757e-10 1.15719e-09 1.15719e-09 -3.1757e-10 -3.1757e-10 1.15719e-09 1.15719e-09 1.15719e-09 1.15719e-09 -4.00094e-09 -4.00094e-09 1.15719e-09 1.15719e-09 -4.00094e-09 -4.00094e-09 -3.1757e-10 -3.1757e-10 1.15719e-09 1.15719e-09 -3.1757e-10 -3.1757e-10 1.15719e-09 1.15719e-09 1.15719e-09 1.15719e-09 -4.00094e-09 -4.00094e-09 1.15719e-09 1.15719e-09 -4.00094e-09 -4.00093e-09 -1.71551e-11 -1.71549e-11 7.62802e-11 7.62792e-11 -1.71549e-11 -1.71557e-11 7.62792e-11 7.62828e-11 7.62802e-11 7.62792e-11 -3.1757e-10 -3.1757e-10 7.62792e-11 7.62828e-11 -3.1757e-10 -3.17572e-10 -1.71557e-11 -1.71535e-11 7.62828e-11 7.62732e-11 -1.71535e-11 -1.71585e-11 7.62732e-11 7.62953e-11 7.62828e-11 7.62732e-11 -3.17572e-10 -3.17565e-10 7.62732e-11 7.62953e-11 -3.17565e-10 -3.1759e-10 -3.1757e-10 -3.1757e-10 1.15719e-09 1.15719e-09 -3.1757e-10 -3.17572e-10 1.15719e-09 1.1572e-09 1.15719e-09 1.15719e-09 -4.00093e-09 -4.00097e-09 1.15719e-09 1.1572e-09 -4.00097e-09 -4.00087e-09 -3.17572e-10 -3.17565e-10 1.1572e-09 1.15715e-09 -3.17565e-10 -3.1759e-10 1.15715e-09 1.15732e-09 1.1572e-09 1.15715e-09 -4.00087e-09 -4.00108e-09 1.15715e-09 1.15732e-09 -4.00108e-09 -4.00081e-09 5.55301e-14 5.59571e-14 -7.88452e-15 -8.48252e-15 5.59571e-14 5.50443e-14 -8.48252e-15 -6.66582e-15 -7.88452e-15 -8.48252e-15 -4.54542e-13 -4.5327e-13 -8.48252e-15 -6.66582e-15 -4.5327e-13 -4.57685e-13 5.50443e-14 5.7401e-14 -6.66582e-15 -1.31509e-14 5.7401e-14 5.16483e-14 -1.31509e-14 3.74862e-15 -6.66582e-15 -1.31509e-14 -4.57685e-13 -4.39075e-13 -1.31509e-14 3.74862e-15 -4.39075e-13 -4.93921e-13 -4.54542e-13 -4.5327e-13 3.24072e-12 3.23474e-12 -4.5327e-13 -4.57685e-13 3.23474e-12 3.25498e-12 3.24072e-12 3.23474e-12 -1.71585e-11 -1.71464e-11 3.23474e-12 3.25498e-12 -1.71464e-11 -1.71914e-11 -4.57685e-13 -4.39075e-13 3.25498e-12 3.17665e-12 -4.39075e-13 -4.93921e-13 3.17665e-12 3.40059e-12 3.25498e-12 3.17665e-12 -1.71914e-11 -1.70091e-11 3.17665e-12 3.40059e-12 -1.70091e-11 -1.75328e-11 5.16483e-14 5.59084e-14 3.74862e-15 -1.31422e-14 5.59084e-14 1.08667e-13 -1.31422e-14 -1.30504e-13 3.74862e-15 -1.31422e-14 -4.93921e-13 -4.40415e-13 -1.31422e-14 -1.30504e-13 -4.40415e-13 -1.59003e-13 1.08667e-13 -7.09133e-14 -1.30504e-13 2.05375e-13 -7.09133e-14 -1.94936e-14 2.05375e-13 4.99121e-13 -1.30504e-13 2.05375e-13 -1.59003e-13 -1.01888e-12 2.05375e-13 4.99121e-13 -1.01888e-12 -8.48488e-13 -4.93921e-13 -4.40415e-13 3.40059e-12 3.0983e-12 -4.40415e-13 -1.59003e-13 3.0983e-12 2.27024e-12 3.40059e-12 3.0983e-12 -1.75328e-11 -1.69566e-11 3.0983e-12 2.27024e-12 -1.69566e-11 -1.5787e-11 -1.59003e-13 -1.01888e-12 2.27024e-12 5.14232e-12 -1.01888e-12 -8.48488e-13 5.14232e-12 8.26005e-12 2.27024e-12 5.14232e-12 -1.5787e-11 -2.00338e-11 5.14232e-12 8.26005e-12 -2.00338e-11 -1.55345e-11 -1.71585e-11 -1.71464e-11 7.62953e-11 7.62434e-11 -1.71464e-11 -1.71914e-11 7.62434e-11 7.64056e-11 7.62953e-11 7.62434e-11 -3.1759e-10 -3.17503e-10 7.62434e-11 7.64056e-11 -3.17503e-10 -3.17795e-10 -1.71914e-11 -1.70091e-11 7.64056e-11 7.58024e-11 -1.70091e-11 -1.75328e-11 7.58024e-11 7.77165e-11 7.64056e-11 7.58024e-11 -3.17795e-10 -3.17025e-10 7.58024e-11 7.77165e-11 -3.17025e-10 -3.18739e-10 -3.1759e-10 -3.17503e-10 1.15732e-09 1.15679e-09 -3.17503e-10 -3.17795e-10 1.15679e-09 1.1583e-09 1.15732e-09 1.15679e-09 -4.00081e-09 -4.0006e-09 1.15679e-09 1.1583e-09 -4.0006e-09 -4.00254e-09 -3.17795e-10 -3.17025e-10 1.1583e-09 1.1543e-09 -3.17025e-10 -3.18739e-10 1.1543e-09 1.16517e-09 1.1583e-09 1.1543e-09 -4.00254e-09 -4.0004e-09 1.1543e-09 1.16517e-09 -4.0004e-09 -3.98996e-09 -1.75328e-11 -1.69566e-11 7.77165e-11 7.37521e-11 -1.69566e-11 -1.5787e-11 7.37521e-11 7.43712e-11 7.77165e-11 7.37521e-11 -3.18739e-10 -3.16211e-10 7.37521e-11 7.43712e-11 -3.16211e-10 -3.36517e-10 -1.5787e-11 -2.00338e-11 7.43712e-11 8.37082e-11 -2.00338e-11 -1.55345e-11 8.37082e-11 1.13408e-10 7.43712e-11 8.37082e-11 -3.36517e-10 -2.7027e-10 8.37082e-11 1.13408e-10 -2.7027e-10 -1.87552e-10 -3.18739e-10 -3.16211e-10 1.16517e-09 1.1276e-09 -3.16211e-10 -3.36517e-10 1.1276e-09 1.24026e-09 1.16517e-09 1.1276e-09 -3.98996e-09 -4.00014e-09 1.1276e-09 1.24026e-09 -4.00014e-09 -4.49226e-09 -3.36517e-10 -2.7027e-10 1.24026e-09 9.77171e-10 -2.7027e-10 -1.87552e-10 9.77171e-10 1.26385e-09 1.24026e-09 9.77171e-10 -4.49226e-09 -2.39372e-09 9.77171e-10 1.26385e-09 -2.39372e-09 -1.11133e-09 -4.00094e-09 -4.00094e-09 1.14554e-08 1.14554e-08 -4.00094e-09 -4.00094e-09 1.14554e-08 1.14554e-08 1.14554e-08 1.14554e-08 -2.6223e-08 -2.6223e-08 1.14554e-08 1.14554e-08 -2.6223e-08 -2.6223e-08 -4.00094e-09 -4.00094e-09 1.14554e-08 1.14554e-08 -4.00094e-09 -4.00093e-09 1.14554e-08 1.14554e-08 1.14554e-08 1.14554e-08 -2.6223e-08 -2.6223e-08 1.14554e-08 1.14554e-08 -2.6223e-08 -2.62228e-08 -2.6223e-08 -2.6223e-08 1.64911e-08 1.64911e-08 -2.6223e-08 -2.6223e-08 1.64911e-08 1.64911e-08 1.64911e-08 1.64911e-08 2.3192e-07 2.3192e-07 1.64911e-08 1.64911e-08 2.3192e-07 2.3192e-07 -2.6223e-08 -2.6223e-08 1.64911e-08 1.64912e-08 -2.6223e-08 -2.62228e-08 1.64912e-08 1.6491e-08 1.64911e-08 1.64912e-08 2.3192e-07 2.3192e-07 1.64912e-08 1.6491e-08 2.3192e-07 2.31921e-07 -4.00093e-09 -4.00097e-09 1.14554e-08 1.14555e-08 -4.00097e-09 -4.00087e-09 1.14555e-08 1.14553e-08 1.14554e-08 1.14555e-08 -2.62228e-08 -2.62234e-08 1.14555e-08 1.14553e-08 -2.62234e-08 -2.62219e-08 -4.00087e-09 -4.00108e-09 1.14553e-08 1.14554e-08 -4.00108e-09 -4.00081e-09 1.14554e-08 1.14563e-08 1.14553e-08 1.14554