# vtk DataFile Version 3.0
#This file was generated by the deal.II library on 2022/11/2 at 18:38:34
ASCII
DATASET UNSTRUCTURED_GRID

POINTS 4096 double
0 0.5 0
0.03125 0.5 0
0 0.53125 0
0.03125 0.53125 0
0.03125 0.5 0
0.0625 0.5 0
0.03125 0.53125 0
0.0625 0.53125 0
0 0.53125 0
0.03125 0.53125 0
0 0.5625 0
0.03125 0.5625 0
0.03125 0.53125 0
0.0625 0.53125 0
0.03125 0.5625 0
0.0625 0.5625 0
0.0625 0.5 0
0.09375 0.5 0
0.0625 0.53125 0
0.09375 0.53125 0
0.09375 0.5 0
0.125 0.5 0
0.09375 0.53125 0
0.125 0.53125 0
0.0625 0.53125 0
0.09375 0.53125 0
0.0625 0.5625 0
0.09375 0.5625 0
0.09375 0.53125 0
0.125 0.53125 0
0.09375 0.5625 0
0.125 0.5625 0
0 0.5625 0
0.03125 0.5625 0
0 0.59375 0
0.03125 0.59375 0
0.03125 0.5625 0
0.0625 0.5625 0
0.03125 0.59375 0
0.0625 0.59375 0
0 0.59375 0
0.03125 0.59375 0
0 0.625 0
0.03125 0.625 0
0.03125 0.59375 0
0.0625 0.59375 0
0.03125 0.625 0
0.0625 0.625 0
0.0625 0.5625 0
0.09375 0.5625 0
0.0625 0.59375 0
0.09375 0.59375 0
0.09375 0.5625 0
0.125 0.5625 0
0.09375 0.59375 0
0.125 0.59375 0
0.0625 0.59375 0
0.09375 0.59375 0
0.0625 0.625 0
0.09375 0.625 0
0.09375 0.59375 0
0.125 0.59375 0
0.09375 0.625 0
0.125 0.625 0
0.125 0.5 0
0.15625 0.5 0
0.125 0.53125 0
0.15625 0.53125 0
0.15625 0.5 0
0.1875 0.5 0
0.15625 0.53125 0
0.1875 0.53125 0
0.125 0.53125 0
0.15625 0.53125 0
0.125 0.5625 0
0.15625 0.5625 0
0.15625 0.53125 0
0.1875 0.53125 0
0.15625 0.5625 0
0.1875 0.5625 0
0.1875 0.5 0
0.21875 0.5 0
0.1875 0.53125 0
0.21875 0.53125 0
0.21875 0.5 0
0.25 0.5 0
0.21875 0.53125 0
0.25 0.53125 0
0.1875 0.53125 0
0.21875 0.53125 0
0.1875 0.5625 0
0.21875 0.5625 0
0.21875 0.53125 0
0.25 0.53125 0
0.21875 0.5625 0
0.25 0.5625 0
0.125 0.5625 0
0.15625 0.5625 0
0.125 0.59375 0
0.15625 0.59375 0
0.15625 0.5625 0
0.1875 0.5625 0
0.15625 0.59375 0
0.1875 0.59375 0
0.125 0.59375 0
0.15625 0.59375 0
0.125 0.625 0
0.15625 0.625 0
0.15625 0.59375 0
0.1875 0.59375 0
0.15625 0.625 0
0.1875 0.625 0
0.1875 0.5625 0
0.21875 0.5625 0
0.1875 0.59375 0
0.21875 0.59375 0
0.21875 0.5625 0
0.25 0.5625 0
0.21875 0.59375 0
0.25 0.59375 0
0.1875 0.59375 0
0.21875 0.59375 0
0.1875 0.625 0
0.21875 0.625 0
0.21875 0.59375 0
0.25 0.59375 0
0.21875 0.625 0
0.25 0.625 0
0 0.625 0
0.03125 0.625 0
0 0.65625 0
0.03125 0.65625 0
0.03125 0.625 0
0.0625 0.625 0
0.03125 0.65625 0
0.0625 0.65625 0
0 0.65625 0
0.03125 0.65625 0
0 0.6875 0
0.03125 0.6875 0
0.03125 0.65625 0
0.0625 0.65625 0
0.03125 0.6875 0
0.0625 0.6875 0
0.0625 0.625 0
0.09375 0.625 0
0.0625 0.65625 0
0.09375 0.65625 0
0.09375 0.625 0
0.125 0.625 0
0.09375 0.65625 0
0.125 0.65625 0
0.0625 0.65625 0
0.09375 0.65625 0
0.0625 0.6875 0
0.09375 0.6875 0
0.09375 0.65625 0
0.125 0.65625 0
0.09375 0.6875 0
0.125 0.6875 0
0 0.6875 0
0.03125 0.6875 0
0 0.71875 0
0.03125 0.71875 0
0.03125 0.6875 0
0.0625 0.6875 0
0.03125 0.71875 0
0.0625 0.71875 0
0 0.71875 0
0.03125 0.71875 0
0 0.75 0
0.03125 0.75 0
0.03125 0.71875 0
0.0625 0.71875 0
0.03125 0.75 0
0.0625 0.75 0
0.0625 0.6875 0
0.09375 0.6875 0
0.0625 0.71875 0
0.09375 0.71875 0
0.09375 0.6875 0
0.125 0.6875 0
0.09375 0.71875 0
0.125 0.71875 0
0.0625 0.71875 0
0.09375 0.71875 0
0.0625 0.75 0
0.09375 0.75 0
0.09375 0.71875 0
0.125 0.71875 0
0.09375 0.75 0
0.125 0.75 0
0.125 0.625 0
0.15625 0.625 0
0.125 0.65625 0
0.15625 0.65625 0
0.15625 0.625 0
0.1875 0.625 0
0.15625 0.65625 0
0.1875 0.65625 0
0.125 0.65625 0
0.15625 0.65625 0
0.125 0.6875 0
0.15625 0.6875 0
0.15625 0.65625 0
0.1875 0.65625 0
0.15625 0.6875 0
0.1875 0.6875 0
0.1875 0.625 0
0.21875 0.625 0
0.1875 0.65625 0
0.21875 0.65625 0
0.21875 0.625 0
0.25 0.625 0
0.21875 0.65625 0
0.25 0.65625 0
0.1875 0.65625 0
0.21875 0.65625 0
0.1875 0.6875 0
0.21875 0.6875 0
0.21875 0.65625 0
0.25 0.65625 0
0.21875 0.6875 0
0.25 0.6875 0
0.125 0.6875 0
0.15625 0.6875 0
0.125 0.71875 0
0.15625 0.71875 0
0.15625 0.6875 0
0.1875 0.6875 0
0.15625 0.71875 0
0.1875 0.71875 0
0.125 0.71875 0
0.15625 0.71875 0
0.125 0.75 0
0.15625 0.75 0
0.15625 0.71875 0
0.1875 0.71875 0
0.15625 0.75 0
0.1875 0.75 0
0.1875 0.6875 0
0.21875 0.6875 0
0.1875 0.71875 0
0.21875 0.71875 0
0.21875 0.6875 0
0.25 0.6875 0
0.21875 0.71875 0
0.25 0.71875 0
0.1875 0.71875 0
0.21875 0.71875 0
0.1875 0.75 0
0.21875 0.75 0
0.21875 0.71875 0
0.25 0.71875 0
0.21875 0.75 0
0.25 0.75 0
0.25 0.5 0
0.28125 0.5 0
0.25 0.53125 0
0.28125 0.53125 0
0.28125 0.5 0
0.3125 0.5 0
0.28125 0.53125 0
0.3125 0.53125 0
0.25 0.53125 0
0.28125 0.53125 0
0.25 0.5625 0
0.28125 0.5625 0
0.28125 0.53125 0
0.3125 0.53125 0
0.28125 0.5625 0
0.3125 0.5625 0
0.3125 0.5 0
0.34375 0.5 0
0.3125 0.53125 0
0.34375 0.53125 0
0.34375 0.5 0
0.375 0.5 0
0.34375 0.53125 0
0.375 0.53125 0
0.3125 0.53125 0
0.34375 0.53125 0
0.3125 0.5625 0
0.34375 0.5625 0
0.34375 0.53125 0
0.375 0.53125 0
0.34375 0.5625 0
0.375 0.5625 0
0.25 0.5625 0
0.28125 0.5625 0
0.25 0.59375 0
0.28125 0.59375 0
0.28125 0.5625 0
0.3125 0.5625 0
0.28125 0.59375 0
0.3125 0.59375 0
0.25 0.59375 0
0.28125 0.59375 0
0.25 0.625 0
0.28125 0.625 0
0.28125 0.59375 0
0.3125 0.59375 0
0.28125 0.625 0
0.3125 0.625 0
0.3125 0.5625 0
0.34375 0.5625 0
0.3125 0.59375 0
0.34375 0.59375 0
0.34375 0.5625 0
0.375 0.5625 0
0.34375 0.59375 0
0.375 0.59375 0
0.3125 0.59375 0
0.34375 0.59375 0
0.3125 0.625 0
0.34375 0.625 0
0.34375 0.59375 0
0.375 0.59375 0
0.34375 0.625 0
0.375 0.625 0
0.375 0.5 0
0.40625 0.5 0
0.375 0.53125 0
0.40625 0.53125 0
0.40625 0.5 0
0.4375 0.5 0
0.40625 0.53125 0
0.4375 0.53125 0
0.375 0.53125 0
0.40625 0.53125 0
0.375 0.5625 0
0.40625 0.5625 0
0.40625 0.53125 0
0.4375 0.53125 0
0.40625 0.5625 0
0.4375 0.5625 0
0.4375 0.5 0
0.46875 0.5 0
0.4375 0.53125 0
0.46875 0.53125 0
0.46875 0.5 0
0.5 0.5 0
0.46875 0.53125 0
0.5 0.53125 0
0.4375 0.53125 0
0.46875 0.53125 0
0.4375 0.5625 0
0.46875 0.5625 0
0.46875 0.53125 0
0.5 0.53125 0
0.46875 0.5625 0
0.5 0.5625 0
0.375 0.5625 0
0.40625 0.5625 0
0.375 0.59375 0
0.40625 0.59375 0
0.40625 0.5625 0
0.4375 0.5625 0
0.40625 0.59375 0
0.4375 0.59375 0
0.375 0.59375 0
0.40625 0.59375 0
0.375 0.625 0
0.40625 0.625 0
0.40625 0.59375 0
0.4375 0.59375 0
0.40625 0.625 0
0.4375 0.625 0
0.4375 0.5625 0
0.46875 0.5625 0
0.4375 0.59375 0
0.46875 0.59375 0
0.46875 0.5625 0
0.5 0.5625 0
0.46875 0.59375 0
0.5 0.59375 0
0.4375 0.59375 0
0.46875 0.59375 0
0.4375 0.625 0
0.46875 0.625 0
0.46875 0.59375 0
0.5 0.59375 0
0.46875 0.625 0
0.5 0.625 0
0.25 0.625 0
0.28125 0.625 0
0.25 0.65625 0
0.28125 0.65625 0
0.28125 0.625 0
0.3125 0.625 0
0.28125 0.65625 0
0.3125 0.65625 0
0.25 0.65625 0
0.28125 0.65625 0
0.25 0.6875 0
0.28125 0.6875 0
0.28125 0.65625 0
0.3125 0.65625 0
0.28125 0.6875 0
0.3125 0.6875 0
0.3125 0.625 0
0.34375 0.625 0
0.3125 0.65625 0
0.34375 0.65625 0
0.34375 0.625 0
0.375 0.625 0
0.34375 0.65625 0
0.375 0.65625 0
0.3125 0.65625 0
0.34375 0.65625 0
0.3125 0.6875 0
0.34375 0.6875 0
0.34375 0.65625 0
0.375 0.65625 0
0.34375 0.6875 0
0.375 0.6875 0
0.25 0.6875 0
0.28125 0.6875 0
0.25 0.71875 0
0.28125 0.71875 0
0.28125 0.6875 0
0.3125 0.6875 0
0.28125 0.71875 0
0.3125 0.71875 0
0.25 0.71875 0
0.28125 0.71875 0
0.25 0.75 0
0.28125 0.75 0
0.28125 0.71875 0
0.3125 0.71875 0
0.28125 0.75 0
0.3125 0.75 0
0.3125 0.6875 0
0.34375 0.6875 0
0.3125 0.71875 0
0.34375 0.71875 0
0.34375 0.6875 0
0.375 0.6875 0
0.34375 0.71875 0
0.375 0.71875 0
0.3125 0.71875 0
0.34375 0.71875 0
0.3125 0.75 0
0.34375 0.75 0
0.34375 0.71875 0
0.375 0.71875 0
0.34375 0.75 0
0.375 0.75 0
0.375 0.625 0
0.40625 0.625 0
0.375 0.65625 0
0.40625 0.65625 0
0.40625 0.625 0
0.4375 0.625 0
0.40625 0.65625 0
0.4375 0.65625 0
0.375 0.65625 0
0.40625 0.65625 0
0.375 0.6875 0
0.40625 0.6875 0
0.40625 0.65625 0
0.4375 0.65625 0
0.40625 0.6875 0
0.4375 0.6875 0
0.4375 0.625 0
0.46875 0.625 0
0.4375 0.65625 0
0.46875 0.65625 0
0.46875 0.625 0
0.5 0.625 0
0.46875 0.65625 0
0.5 0.65625 0
0.4375 0.65625 0
0.46875 0.65625 0
0.4375 0.6875 0
0.46875 0.6875 0
0.46875 0.65625 0
0.5 0.65625 0
0.46875 0.6875 0
0.5 0.6875 0
0.375 0.6875 0
0.40625 0.6875 0
0.375 0.71875 0
0.40625 0.71875 0
0.40625 0.6875 0
0.4375 0.6875 0
0.40625 0.71875 0
0.4375 0.71875 0
0.375 0.71875 0
0.40625 0.71875 0
0.375 0.75 0
0.40625 0.75 0
0.40625 0.71875 0
0.4375 0.71875 0
0.40625 0.75 0
0.4375 0.75 0
0.4375 0.6875 0
0.46875 0.6875 0
0.4375 0.71875 0
0.46875 0.71875 0
0.46875 0.6875 0
0.5 0.6875 0
0.46875 0.71875 0
0.5 0.71875 0
0.4375 0.71875 0
0.46875 0.71875 0
0.4375 0.75 0
0.46875 0.75 0
0.46875 0.71875 0
0.5 0.71875 0
0.46875 0.75 0
0.5 0.75 0
0 0.75 0
0.03125 0.75 0
0 0.78125 0
0.03125 0.78125 0
0.03125 0.75 0
0.0625 0.75 0
0.03125 0.78125 0
0.0625 0.78125 0
0 0.78125 0
0.03125 0.78125 0
0 0.8125 0
0.03125 0.8125 0
0.03125 0.78125 0
0.0625 0.78125 0
0.03125 0.8125 0
0.0625 0.8125 0
0.0625 0.75 0
0.09375 0.75 0
0.0625 0.78125 0
0.09375 0.78125 0
0.09375 0.75 0
0.125 0.75 0
0.09375 0.78125 0
0.125 0.78125 0
0.0625 0.78125 0
0.09375 0.78125 0
0.0625 0.8125 0
0.09375 0.8125 0
0.09375 0.78125 0
0.125 0.78125 0
0.09375 0.8125 0
0.125 0.8125 0
0 0.8125 0
0.03125 0.8125 0
0 0.84375 0
0.03125 0.84375 0
0.03125 0.8125 0
0.0625 0.8125 0
0.03125 0.84375 0
0.0625 0.84375 0
0 0.84375 0
0.03125 0.84375 0
0 0.875 0
0.03125 0.875 0
0.03125 0.84375 0
0.0625 0.84375 0
0.03125 0.875 0
0.0625 0.875 0
0.0625 0.8125 0
0.09375 0.8125 0
0.0625 0.84375 0
0.09375 0.84375 0
0.09375 0.8125 0
0.125 0.8125 0
0.09375 0.84375 0
0.125 0.84375 0
0.0625 0.84375 0
0.09375 0.84375 0
0.0625 0.875 0
0.09375 0.875 0
0.09375 0.84375 0
0.125 0.84375 0
0.09375 0.875 0
0.125 0.875 0
0.125 0.75 0
0.15625 0.75 0
0.125 0.78125 0
0.15625 0.78125 0
0.15625 0.75 0
0.1875 0.75 0
0.15625 0.78125 0
0.1875 0.78125 0
0.125 0.78125 0
0.15625 0.78125 0
0.125 0.8125 0
0.15625 0.8125 0
0.15625 0.78125 0
0.1875 0.78125 0
0.15625 0.8125 0
0.1875 0.8125 0
0.1875 0.75 0
0.21875 0.75 0
0.1875 0.78125 0
0.21875 0.78125 0
0.21875 0.75 0
0.25 0.75 0
0.21875 0.78125 0
0.25 0.78125 0
0.1875 0.78125 0
0.21875 0.78125 0
0.1875 0.8125 0
0.21875 0.8125 0
0.21875 0.78125 0
0.25 0.78125 0
0.21875 0.8125 0
0.25 0.8125 0
0.125 0.8125 0
0.15625 0.8125 0
0.125 0.84375 0
0.15625 0.84375 0
0.15625 0.8125 0
[...]
POINT_DATA 4096
SCALARS x_dis double 1
LOOKUP_TABLE default
-1.24546e-15 -1.21343e-15 3.44008e-15 7.8217e-15 -1.21343e-15 -4.24072e-16 7.8217e-15 4.03651e-15 3.44008e-15 7.8217e-15 -3.72695e-14 -3.69457e-14 7.8217e-15 4.03651e-15 -3.69457e-14 -2.5388e-14 -4.24072e-16 -9.09839e-16 4.03651e-15 5.90047e-15 -9.09839e-16 -6.64631e-16 5.90047e-15 5.04284e-15 4.03651e-15 5.90047e-15 -2.5388e-14 -3.23115e-14 5.90047e-15 5.04284e-15 -3.23115e-14 -2.90097e-14 -3.72695e-14 -3.69457e-14 1.19385e-13 1.91609e-13 -3.69457e-14 -2.5388e-14 1.91609e-13 1.35294e-13 1.19385e-13 1.91609e-13 -8.42396e-13 -8.40581e-13 1.91609e-13 1.35294e-13 -8.40581e-13 -6.75116e-13 -2.5388e-14 -3.23115e-14 1.35294e-13 1.61593e-13 -3.23115e-14 -2.90097e-14 1.61593e-13 1.50335e-13 1.35294e-13 1.61593e-13 -6.75116e-13 -7.70852e-13 1.61593e-13 1.50335e-13 -7.70852e-13 -7.27833e-13 -6.64631e-16 -7.78642e-16 5.04284e-15 5.40884e-15 -7.78642e-16 -7.30842e-16 5.40884e-15 5.2631e-15 5.04284e-15 5.40884e-15 -2.90097e-14 -3.04423e-14 5.40884e-15 5.2631e-15 -3.04423e-14 -2.98782e-14 -7.30842e-16 -7.49758e-16 5.2631e-15 5.31792e-15 -7.49758e-16 -7.42665e-16 5.31792e-15 5.29828e-15 5.2631e-15 5.31792e-15 -2.98782e-14 -3.00883e-14 5.31792e-15 5.29828e-15 -3.00883e-14 -3.0014e-14 -2.90097e-14 -3.04423e-14 1.50335e-13 1.54771e-13 -3.04423e-14 -2.98782e-14 1.54771e-13 1.53124e-13 1.50335e-13 1.54771e-13 -7.27833e-13 -7.45183e-13 1.54771e-13 1.53124e-13 -7.45183e-13 -7.3884e-13 -2.98782e-14 -3.00883e-14 1.53124e-13 1.53705e-13 -3.00883e-14 -3.0014e-14 1.53705e-13 1.53509e-13 1.53124e-13 1.53705e-13 -7.3884e-13 -7.41038e-13 1.53705e-13 1.53509e-13 -7.41038e-13 -7.40312e-13 -8.42396e-13 -8.40581e-13 2.82431e-12 4.00743e-12 -8.40581e-13 -6.75116e-13 4.00743e-12 3.1862e-12 2.82431e-12 4.00743e-12 -1.6961e-11 -1.69726e-11 4.00743e-12 3.1862e-12 -1.69726e-11 -1.46769e-11 -6.75116e-13 -7.70852e-13 3.1862e-12 3.5453e-12 -7.70852e-13 -7.27833e-13 3.5453e-12 3.40329e-12 3.1862e-12 3.5453e-12 -1.46769e-11 -1.59532e-11 3.5453e-12 3.40329e-12 -1.59532e-11 -1.54122e-11 -1.6961e-11 -1.69726e-11 5.81245e-11 7.73659e-11 -1.69726e-11 -1.46769e-11 7.73659e-11 6.5694e-11 5.81245e-11 7.73659e-11 -3.2034e-10 -3.20962e-10 7.73659e-11 6.5694e-11 -3.20962e-10 -2.90482e-10 -1.46769e-11 -1.59532e-11 6.5694e-11 7.03874e-11 -1.59532e-11 -1.54122e-11 7.03874e-11 6.86904e-11 6.5694e-11 7.03874e-11 -2.90482e-10 -3.06647e-10 7.03874e-11 6.86904e-11 -3.06647e-10 -3.00249e-10 -7.27833e-13 -7.45183e-13 3.40329e-12 3.45443e-12 -7.45183e-13 -7.3884e-13 3.45443e-12 3.43705e-12 3.40329e-12 3.45443e-12 -1.54122e-11 -1.56172e-11 3.45443e-12 3.43705e-12 -1.56172e-11 -1.55463e-11 -7.3884e-13 -7.41038e-13 3.43705e-12 3.4427e-12 -7.41038e-13 -7.40312e-13 3.4427e-12 3.44093e-12 3.43705e-12 3.4427e-12 -1.55463e-11 -1.55695e-11 3.4427e-12 3.44093e-12 -1.55695e-11 -1.55623e-11 -1.54122e-11 -1.56172e-11 6.86904e-11 6.92528e-11 -1.56172e-11 -1.55463e-11 6.92528e-11 6.90768e-11 6.86904e-11 6.92528e-11 -3.00249e-10 -3.02486e-10 6.92528e-11 6.90768e-11 -3.02486e-10 -3.01769e-10 -1.55463e-11 -1.55695e-11 6.90768e-11 6.91296e-11 -1.55695e-11 -1.55623e-11 6.91296e-11 6.91144e-11 6.90768e-11 6.91296e-11 -3.01769e-10 -3.01985e-10 6.91296e-11 6.91144e-11 -3.01985e-10 -3.01923e-10 -7.42665e-16 -7.45207e-16 5.29828e-15 5.30502e-15 -7.45207e-16 -7.44319e-16 5.30502e-15 5.30281e-15 5.29828e-15 5.30502e-15 -3.0014e-14 -3.00391e-14 5.30502e-15 5.30281e-15 -3.00391e-14 -3.00309e-14 -7.44319e-16 -7.44636e-16 5.30281e-15 5.30342e-15 -7.44636e-16 -7.44584e-16 5.30342e-15 5.30359e-15 5.30281e-15 5.30342e-15 -3.00309e-14 -3.00335e-14 5.30342e-15 5.30359e-15 -3.00335e-14 -3.00328e-14 -3.0014e-14 -3.00391e-14 1.53509e-13 1.53573e-13 -3.00391e-14 -3.00309e-14 1.53573e-13 1.53553e-13 1.53509e-13 1.53573e-13 -7.40312e-13 -7.40542e-13 1.53573e-13 1.53553e-13 -7.40542e-13 -7.40472e-13 -3.00309e-14 -3.00335e-14 1.53553e-13 1.53559e-13 -3.00335e-14 -3.00328e-14 1.53559e-13 1.53557e-13 1.53553e-13 1.53559e-13 -7.40472e-13 -7.40493e-13 1.53559e-13 1.53557e-13 -7.40493e-13 -7.40487e-13 -7.44584e-16 -7.43726e-16 5.30359e-15 5.30242e-15 -7.43726e-16 -7.50727e-16 5.30242e-15 5.30542e-15 5.30359e-15 5.30242e-15 -3.00328e-14 -3.00328e-14 5.30242e-15 5.30542e-15 -3.00328e-14 -3.00337e-14 -7.50727e-16 -7.0631e-16 5.30542e-15 5.30399e-15 -7.0631e-16 -9.62407e-16 5.30399e-15 5.25232e-15 5.30542e-15 5.30399e-15 -3.00337e-14 -3.00297e-14 5.30399e-15 5.25232e-15 -3.00297e-14 -3.00451e-14 -3.00328e-14 -3.00328e-14 1.53557e-13 1.53558e-13 -3.00328e-14 -3.00337e-14 1.53558e-13 1.53557e-13 1.53557e-13 1.53558e-13 -7.40487e-13 -7.40488e-13 1.53558e-13 1.53557e-13 -7.40488e-13 -7.40488e-13 -3.00337e-14 -3.00297e-14 1.53557e-13 1.53558e-13 -3.00297e-14 -3.00451e-14 1.53558e-13 1.53557e-13 1.53557e-13 1.53558e-13 -7.40488e-13 -7.40488e-13 1.53558e-13 1.53557e-13 -7.40488e-13 -7.40489e-13 -7.40312e-13 -7.40542e-13 3.44093e-12 3.44147e-12 -7.40542e-13 -7.40472e-13 3.44147e-12 3.44131e-12 3.44093e-12 3.44147e-12 -1.55623e-11 -1.55644e-11 3.44147e-12 3.44131e-12 -1.55644e-11 -1.55638e-11 -7.40472e-13 -7.40493e-13 3.44131e-12 3.44136e-12 -7.40493e-13 -7.40487e-13 3.44136e-12 3.44134e-12 3.44131e-12 3.44136e-12 -1.55638e-11 -1.5564e-11 3.44136e-12 3.44134e-12 -1.5564e-11 -1.55639e-11 -1.55623e-11 -1.55644e-11 6.91144e-11 6.91186e-11 -1.55644e-11 -1.55638e-11 6.91186e-11 6.91175e-11 6.91144e-11 6.91186e-11 -3.01923e-10 -3.0194e-10 6.91186e-11 6.91175e-11 -3.0194e-10 -3.01935e-10 -1.55638e-11 -1.5564e-11 6.91175e-11 6.91177e-11 -1.5564e-11 -1.55639e-11 6.91177e-11 6.91177e-11 6.91175e-11 6.91177e-11 -3.01935e-10 -3.01936e-10 6.91177e-11 6.91177e-11 -3.01936e-10 -3.01936e-10 -7.40487e-13 -7.40488e-13 3.44134e-12 3.44135e-12 -7.40488e-13 -7.40488e-13 3.44135e-12 3.44135e-12 3.44134e-12 3.44135e-12 -1.55639e-11 -1.5564e-11 3.44135e-12 3.44135e-12 -1.5564e-11 -1.5564e-11 -7.40488e-13 -7.40488e-13 3.44135e-12 3.44135e-12 -7.40488e-13 -7.40489e-13 3.44135e-12 3.44135e-12 3.44135e-12 3.44135e-12 -1.5564e-11 -1.5564e-11 3.44135e-12 3.44135e-12 -1.5564e-11 -1.5564e-11 -1.55639e-11 -1.5564e-11 6.91177e-11 6.91177e-11 -1.5564e-11 -1.5564e-11 6.91177e-11 6.91177e-11 6.91177e-11 6.91177e-11 -3.01936e-10 -3.01936e-10 6.91177e-11 6.91177e-11 -3.01936e-10 -3.01936e-10 -1.5564e-11 -1.5564e-11 6.91177e-11 6.91177e-11 -1.5564e-11 -1.5564e-11 6.91177e-11 6.91177e-11 6.91177e-11 6.91177e-11 -3.01936e-10 -3.01936e-10 6.91177e-11 6.91177e-11 -3.01936e-10 -3.01936e-10 -3.2034e-10 -3.20962e-10 1.1121e-09 1.42238e-09 -3.20962e-10 -2.90482e-10 1.42238e-09 1.2622e-09 1.1121e-09 1.42238e-09 -5.80907e-09 -5.82073e-09 1.42238e-09 1.2622e-09 -5.82073e-09 -5.44367e-09 -2.90482e-10 -3.06647e-10 1.2622e-09 1.32023e-09 -3.06647e-10 -3.00249e-10 1.32023e-09 1.30147e-09 1.2622e-09 1.32023e-09 -5.44367e-09 -5.63321e-09 1.32023e-09 1.30147e-09 -5.63321e-09 -5.56359e-09 -5.80907e-09 -5.82073e-09 2.03408e-08 2.52984e-08 -5.82073e-09 -5.44367e-09 2.52984e-08 2.32062e-08 2.03408e-08 2.52984e-08 -1.02399e-07 -1.02546e-07 2.52984e-08 2.32062e-08 -1.02546e-07 -9.83982e-08 -5.44367e-09 -5.63321e-09 2.32062e-08 2.38717e-08 -5.63321e-09 -5.56359e-09 2.38717e-08 2.36856e-08 2.32062e-08 2.38717e-08 -9.83982e-08 -1.00416e-07 2.38717e-08 2.36856e-08 -1.00416e-07 -9.96913e-08 -3.00249e-10 -3.02486e-10 1.30147e-09 1.30703e-09 -3.02486e-10 -3.01769e-10 1.30703e-09 1.30547e-09 1.30147e-09 1.30703e-09 -5.56359e-09 -5.58597e-09 1.30703e-09 1.30547e-09 -5.58597e-09 -5.57952e-09 -3.01769e-10 -3.01985e-10 1.30547e-09 1.30588e-09 -3.01985e-10 -3.01923e-10 1.30588e-09 1.30578e-09 1.30547e-09 1.30588e-09 -5.57952e-09 -5.58126e-09 1.30588e-09 1.30578e-09 -5.58126e-09 -5.58082e-09 -5.56359e-09 -5.58597e-09 2.36856e-08 2.37328e-08 -5.58597e-09 -5.57952e-09 2.37328e-08 2.37219e-08 2.36856e-08 2.37328e-08 -9.96913e-08 -9.99215e-08 2.37328e-08 2.37219e-08 -9.99215e-08 -9.98541e-08 -5.57952e-09 -5.58126e-09 2.37219e-08 2.37242e-08 -5.58126e-09 -5.58082e-09 2.37242e-08 2.37238e-08 2.37219e-08 2.37242e-08 -9.98541e-08 -9.98728e-08 2.37242e-08 2.37238e-08 -9.98728e-08 -9.98678e-08 -1.02399e-07 -1.02546e-07 3.60695e-07 4.39333e-07 -1.02546e-07 -9.83982e-08 4.39333e-07 4.13948e-07 3.60695e-07 4.39333e-07 -1.7673e-06 -1.76845e-06 4.39333e-07 4.13948e-07 -1.76845e-06 -1.7346e-06 -9.83982e-08 -1.00416e-07 4.13948e-07 4.20862e-07 -1.00416e-07 -9.96913e-08 4.20862e-07 4.19145e-07 4.13948e-07 4.20862e-07 -1.7346e-06 -1.75019e-06 4.20862e-07 4.19145e-07 -1.75019e-06 -1.74485e-06 -1.7673e-06 -1.76845e-06 6.25093e-06 7.49324e-06 -1.76845e-06 -1.7346e-06 7.49324e-06 7.22453e-06 6.25093e-06 7.49324e-06 -3e-05 -3e-05 7.49324e-06 7.22453e-06 -3e-05 -3e-05 -1.7346e-06 -1.75019e-06 7.22453e-06 7.27958e-06 -1.75019e-06 -1.74485e-06 7.27958e-06 7.2686e-06 7.22453e-06 7.27958e-06 -3e-05 -3e-05 7.27958e-06 7.2686e-06 -3e-05 -3e-05 -9.96913e-08 -9.99215e-08 4.19145e-07 4.19541e-07 -9.99215e-08 -9.98541e-08 4.19541e-07 4.19456e-07 4.19145e-07 4.19541e-07 -1.74485e-06 -1.74647e-06 4.19541e-07 4.19456e-07 -1.74647e-06 -1.74601e-06 -9.98541e-08 -9.98728e-08 4.19456e-07 4.19473e-07 -9.98728e-08 -9.98678e-08 4.19473e-07 4.1947e-07 4.19456e-07 4.19473e-07 -1.74601e-06 -1.74614e-06 4.19473e-07 4.1947e-07 -1.74614e-06 -1.7461e-06 -1.74485e-06 -1.74647e-06 7.2686e-06 7.27071e-06 -1.74647e-06 -1.74601e-06 7.27071e-06 7.27032e-06 7.2686e-06 7.27071e-06 -3e-05 -3e-05 7.27071e-06 7.27032e-06 -3e-05 -3e-05 -1.74601e-06 -1.74614e-06 7.27032e-06 7.27039e-06 -1.74614e-06 -1.7461e-06 7.27039e-06 7.27038e-06 7.27032e-06 7.27039e-06 -3e-05 -3e-05 7.27039e-06 7.27038e-06 -3e-05 -3e-05 -3.01923e-10 -3.0194e-10 1.30578e-09 1.3058e-09 -3.0194e-10 -3.01935e-10 1.3058e-09 1.3058e-09 1.30578e-09 1.3058e-09 -5.58082e-09 -5.58093e-09 1.3058e-09 1.3058e-09 -5.58093e-09 -5.5809e-09 -3.01935e-10 -3.01936e-10 1.3058e-09 1.3058e-09 -3.01936e-10 -3.01936e-10 1.3058e-09 1.3058e-09 1.3058e-09 1.3058e-09 -5.5809e-09 -5.58091e-09 1.3058e-09 1.3058e-09 -5.58091e-09 -5.58091e-09 -5.58082e-09 -5.58093e-09 2.37238e-08 2.37238e-08 -5.58093e-09 -5.5809e-09 2.37238e-08 2.37238e-08 2.37238e-08 2.37238e-08 -9.98678e-08 -9.98691e-08 2.37238e-08 2.37238e-08 -9.98691e-08 -9.98688e-08 -5.5809e-09 -5.58091e-09 2.37238e-08 2.37238e-08 -5.58091e-09 -5.58091e-09 2.37238e-08 2.37238e-08 2.37238e-08 2.37238e-08 -9.98688e-08 -9.98688e-08 2.37238e-08 2.37238e-08 -9.98688e-08 -9.98688e-08 -3.01936e-10 -3.01936e-10 1.3058e-09 1.3058e-09 -3.01936e-10 -3.01936e-10 1.3058e-09 1.3058e-09 1.3058e-09 1.3058e-09 -5.58091e-09 -5.58091e-09 1.3058e-09 1.3058e-09 -5.58091e-09 -5.58091e-09 -3.01936e-10 -3.01936e-10 1.3058e-09 1.3058e-09 -3.01936e-10 -3.01936e-10 1.3058e-09 1.3058e-09 1.3058e-09 1.3058e-09 -5.58091e-09 -5.58091e-09 1.3058e-09 1.3058e-09 -5.58091e-09 -5.58091e-09 -5.58091e-09 -5.58091e-09 2.37238e-08 2.37238e-08 -5.58091e-09 -5.58091e-09 2.37238e-08 2.37238e-08 2.37238e-08 2.37238e-08 -9.98688e-08 -9.98688e-08 2.37238e-08 2.37238e-08 -9.98688e-08 -9.98688e-08 -5.58091e-09 -5.58091e-09 2.37238e-08 2.37238e-08 -5.58091e-09 -5.58091e-09 2.37238e-08 2.37238e-08 2.37238e-08 2.37238e-08 -9.98688e-08 -9.98688e-08 2.37238e-08 2.37238e-08 -9.98688e-08 -9.98688e-08 -9.98678e-08 -9.98691e-08 4.1947e-07 4.1947e-07 -9.98691e-08 -9.98688e-08 4.1947e-07 4.1947e-07 4.1947e-07 4.1947e-07 -1.7461e-06 -1.74611e-06 4.1947e-07 4.1947e-07 -1.74611e-06 -1.74611e-06 -9.98688e-08 -9.98688e-08 4.1947e-07 4.1947e-07 -9.98688e-08 -9.98688e-08 4.1947e-07 4.1947e-07 4.1947e-07 4.1947e-07 -1.74611e-06 -1.74611e-06 4.1947e-07 4.1947e-07 -1.74611e-06 -1.74611e-06 -1.7461e-06 -1.74611e-06 7.27038e-06 7.27038e-06 -1.74611e-06 -1.74611e-06 7.27038e-06 7.27038e-06 7.27038e-06 7.27038e-06 -3e-05 -3e-05 7.27038e-06 7.27038e-06 -3e-05 -3e-05 -1.74611e-06 -1.74611e-06 7.27038e-06 7.27038e-06 -1.74611e-06 -1.74611e-06 7.27038e-06 7.27038e-06 7.27038e-06 7.27038e-06 -3e-05 -3e-05 7.27038e-06 7.27038e-06 -3e-05 -3e-05 -9.98688e-08 -9.98688e-08 4.1947e-07 4.1947e-07 -9.98688e-08 -9.98688e-08 4.1947e-07 4.1947e-07 4.1947e-07 4.1947e-07 -1.74611e-06 -1.74611e-06 4.1947e-07 4.1947e-07 -1.74611e-06 -1.74611e-06 -9.98688e-08 -9.98688e-08 4.1947e-07 4.1947e-07 -9.98688e-08 -9.98688e-08 4.1947e-07 4.1947e-07 4.1947e-07 4.1947e-07 -1.74611e-06 -1.74611e-06 4.1947e-07 4.1947e-07 -1.74611e-06 -1.74611e-06 -1.74611e-06 -1.74611e-06 7.27038e-06 7.27038e-06 -1.74611e-06 -1.74611e-06 7.27038e-06 7.27038e-06 7.27038e-06 7.27038e-06 -3e-05 -3e-05 7.27038e-06 7.27038e-06 -3e-05 -3e-05 -1.74611e-06 -1.74611e-06 7.27038e-06 7.27038e-06 -1.74611e-06 -1.74611e-06 7.27038e-06 7.27038e-06 7.27038e-06 7.27038e-06 -3e-05 -3e-05 7.27038e-06 7.27038e-06 -3e-05 -3e-05 -9.62407e-16 -1.11482e-15 5.25232e-15 5.21122e-15 -1.11482e-15 -1.69491e-15 5.21122e-15 5.42831e-15 5.25232e-15 5.21122e-15 -3.00451e-14 -2.997e-14 5.21122e-15 5.42831e-15 -2.997e-14 -3.00142e-14 -1.69491e-15 -1.45736e-15 5.42831e-15 5.32981e-15 -1.45736e-15 -1.5435e-15 5.32981e-15 5.36309e-15 5.42831e-15 5.32981e-15 -3.00142e-14 -2.99996e-14 5.32981e-15 5.36309e-15 -2.99996e-14 -3.00046e-14 -3.00451e-14 -2.997e-14 1.53557e-13 1.53526e-13 -2.997e-14 -3.00142e-14 1.53526e-13 1.53544e-13 1.53557e-13 1.53526e-13 -7.40489e-13 -7.40477e-13 1.53526e-13 1.53544e-13 -7.40477e-13 -7.40481e-13 -3.00142e-14 -2.99996e-14 1.53544e-13 1.53539e-13 -2.99996e-14 -3.00046e-14 1.53539e-13 1.5354e-13 1.53544e-13 1.53539e-13 -7.40481e-13 -7.40481e-13 1.53539e-13 1.5354e-13 -7.40481e-13 -7.40482e-13 -1.5435e-15 -1.51887e-15 5.36309e-15 5.35325e-15 -1.51887e-15 -1.52592e-15 5.35325e-15 5.35638e-15 5.36309e-15 5.35325e-15 -3.00046e-14 -3.00029e-14 5.35325e-15 5.35638e-15 -3.00029e-14 -3.00043e-14 -1.52592e-15 -1.52348e-15 5.35638e-15 5.35438e-15 -1.52348e-15 -1.52547e-15 5.35438e-15 5.35798e-15 5.35638e-15 5.35438e-15 -3.00043e-14 -3.00012e-14 5.35438e-15 5.35798e-15 -3.00012e-14 -3.00096e-14 -3.00046e-14 -3.00029e-14 1.5354e-13 1.53539e-13 -3.00029e-14 -3.00043e-14 1.53539e-13 1.53543e-13 1.5354e-13 1.53539e-13 -7.40482e-13 -7.40478e-13 1.53539e-13 1.53543e-13 -7.40478e-13 -7.40488e-13 -3.00043e-14 -3.00012e-14 1.53543e-13 1.53532e-13 -3.00012e-14 -3.00096e-14 1.53532e-13 1.53563e-13 1.53543e-13 1.53532e-13 -7.40488e-13 -7.40458e-13 1.53532e-13 1.53563e-13 -7.40458e-13 -7.40546e-13 -7.40489e-13 -7.40477e-13 3.44135e-12 3.44134e-12 -7.40477e-13 -7.40481e-13 3.44134e-12 3.44134e-12 3.44135e-12 3.44134e-12 -1.5564e-11 -1.5564e-11 3.44134e-12 3.44134e-12 -1.5564e-11 -1.5564e-11 -7.40481e-13 -7.40481e-13 3.44134e-12 3.44134e-12 -7.40481e-13 -7.40482e-13 3.44134e-12 3.44135e-12 3.44134e-12 3.44134e-12 -1.5564e-11 -1.55639e-11 3.44134e-12 3.44135e-12 -1.55639e-11 -1.5564e-11 -1.5564e-11 -1.5564e-11 6.91177e-11 6.91177e-11 -1.5564e-11 -1.5564e-11 6.91177e-11 6.91177e-11 6.91177e-11 6.91177e-11 -3.01936e-10 -3.01936e-10 6.91177e-11 6.91177e-11 -3.01936e-10 -3.01936e-10 -1.5564e-11 -1.55639e-11 6.91177e-11 6.91177e-11 -1.55639e-11 -1.5564e-11 6.91177e-11 6.91177e-11 6.91177e-11 6.91177e-11 -3.01936e-10 -3.01936e-10 6.91177e-11 6.91177e-11 -3.01936e-10 -3.01936e-10 -7.40482e-13 -7.40478e-13 3.44135e-12 3.44134e-12 -7.40478e-13 -7.40488e-13 3.44134e-12 3.44137e-12 3.44135e-12 3.44134e-12 -1.5564e-11 -1.55639e-11 3.44134e-12 3.44137e-12 -1.55639e-11 -1.5564e-11 -7.40488e-13 -7.40458e-13 3.44137e-12 3.44126e-12 -7.40458e-13 -7.40546e-13 3.44126e-12 3.44159e-12 3.44137e-12 3.44126e-12 -1.5564e-11 -1.55637e-11 3.44126e-12 3.44159e-12 -1.55637e-11 -1.55647e-11 -1.5564e-11 -1.55639e-11 6.91177e-11 6.91176e-11 -1.55639e-11 -1.5564e-11 6.91176e-11 6.91179e-11 6.91177e-11 6.91176e-11 -3.01936e-10 -3.01936e-10 6.91176e-11 6.91179e-11 -3.01936e-10 -3.01937e-10 -1.5564e-11 -1.55637e-11 6.91179e-11 6.91169e-11 -1.55637e-11 -1.55647e-11 6.91169e-11 6.91202e-11 6.91179e-11 6.91169e-11 -3.01937e-10 -3.01934e-10 6.91169e-11 6.91202e-11 -3.01934e-10 -3.01943e-10 -1.52547e-15 -1.52164e-15 5.35798e-15 5.34937e-15 -1.52164e-15 -1.53023e-15 5.34937e-15 5.3695e-15 5.35798e-15 5.34937e-15 -3.00096e-14 -2.99874e-14 5.34937e-15 5.3695e-15 -2.99874e-14 -3.00428e-14 -1.53023e-15 -1.51264e-15 5.3695e-15 5.3262e-15 -1.51264e-15 -1.54075e-15 5.3262e-15 5.40691e-15 5.3695e-15 5.3262e-15 -3.00428e-14 -2.99157e-14 5.3262e-15 5.40691e-15 -2.99157e-14 -3.01649e-14 -3.00096e-14 -2.99874e-14 1.53563e-13 1.53479e-13 -2.99874e-14 -3.00428e-14 1.53479e-13 1.53693e-13 1.53563e-13 1.53479e-13 -7.40546e-13 -7.40299e-13 1.53479e-13 1.53693e-13 -7.40299e-13 -7.40958e-13 -3.00428e-14 -2.99157e-14 1.53693e-13 1.53188e-13 -2.99157e-14 -3.01649e-14 1.53188e-13 1.54252e-13 1.53693e-13 1.53188e-13 -7.40958e-13 -7.39329e-13 1.53188e-13 1.54252e-13 -7.39329e-13 -7.4286e-13 -1.54075e-15 -1.52673e-15 5.40691e-15 5.29419e-15 -1.52673e-15 -1.40449e-15 5.29419e-15 5.37739e-15 5.40691e-15 5.29419e-15 -3.01649e-14 -2.98392e-14 5.29419e-15 5.37739e-15 -2.98392e-14 -2.96839e-14 -1.40449e-15 -1.81992e-15 5.37739e-15 4.845e-15 -1.81992e-15 -1.88316e-15 4.845e-15 1.02324e-14 5.37739e-15 4.845e-15 -2.96839e-14 -3.10915e-14 4.845e-15 1.02324e-14 -3.10915e-14 -3.2897e-14 -3.01649e-14 -2.98392e-14 1.54252e-13 1.52382e-13 -2.98392e-14 -2.96839e-14 1.52382e-13 1.55228e-13 1.54252e-13 1.52382e-13 -7.4286e-13 -7.37084e-13 1.52382e-13 1.55228e-13 -7.37084e-13 -7.40259e-13 -2.96839e-14 -3.10915e-14 1.55228e-13 1.42964e-13 -3.10915e-14 -3.2897e-14 1.42964e-13 2.25596e-13 1.55228e-13 1.42964e-13 -7.40259e-13 -7.47753e-13 1.42964e-13 2.25596e-13 -7.47753e-13 -7.75702e-13 -7.40546e-13 -7.40299e-13 3.44159e-12 3.44066e-12 -7.40299e-13 -7.40958e-13 3.44066e-12 3.44319e-12 3.44159e-12 3.44066e-12 -1.55647e-11 -1.55619e-11 3.44066e-12 3.44319e-12 -1.55619e-11 -1.55698e-11 -7.40958e-13 -7.39329e-13 3.44319e-12 3.43671e-12 -7.39329e-13 -7.4286e-13 3.43671e-12 3.45196e-12 3.44319e-12 3.43671e-12 -1.55698e-11 -1.55489e-11 3.43671e-12 3.45196e-12 -1.55489e-11 -1.55983e-11 -1.55647e-11 -1.55619e-11 6.91202e-11 6.91102e-11 -1.55619e-11 -1.55698e-11 6.91102e-11 6.91392e-11 6.91202e-11 6.91102e-11 -3.01943e-10 -3.01915e-10 6.91102e-11 6.91392e-11 -3.01915e-10 -3.01999e-10 -1.55698e-11 -1.55489e-11 6.91392e-11 6.90591e-11 -1.55489e-11 -1.55983e-11 6.90591e-11 6.92679e-11 6.91392e-11 6.90591e-11 -3.01999e-10 -3.0176e-10 6.90591e-11 6.92679e-11 -3.0176e-10 -3.02378e-10 -7.4286e-13 -7.37084e-13 3.45196e-12 3.41952e-12 -7.37084e-13 -7.40259e-13 3.41952e-12 3.48808e-12 3.45196e-12 3.41952e-12 -1.55983e-11 -1.55032e-11 3.41952e-12 3.48808e-12 -1.55032e-11 -1.56197e-11 -7.40259e-13 -7.47753e-13 3.48808e-12 3.23244e-12 -7.47753e-13 -7.75702e-13 3.23244e-12 4.56623e-12 3.48808e-12 3.23244e-12 -1.56197e-11 -1.55488e-11 3.23244e-12 4.56623e-12 -1.55488e-11 -1.5966e-11 -1.55983e-11 -1.55032e-11 6.92679e-11 6.87509e-11 -1.55032e-11 -1.56197e-11 6.87509e-11 7.00844e-11 6.92679e-11 6.87509e-11 -3.02378e-10 -3.01004e-10 6.87509e-11 7.00844e-11 -3.01004e-10 -3.03361e-10 -1.56197e-11 -1.55488e-11 7.00844e-11 6.52953e-11 -1.55488e-11 -1.5966e-11 6.52953e-11 8.66803e-11 7.00844e-11 6.52953e-11 -3.03361e-10 -3.00268e-10 6.52953e-11 8.66803e-11 -3.00268e-10 -3.06014e-10 -3.01936e-10 -3.01936e-10 1.3058e-09 1.3058e-09 -3.01936e-10 -3.01936e-10 1.3058e-09 1.3058e-09 1.3058e-09 1.3058e-09 -5.58091e-09 -5.58091e-09 1.3058e-09 1.3058e-09 -5.58091e-09 -5.58091e-09 -3.01936e-10 -3.01936e-10 1.3058e-09 1.3058e-09 -3.01936e-10 -3.01936e-10 1.3058e-09 1.3058e-09 1.3058e-09 1.3058e-09 -5.58091e-09 -5.58091e-09 1.3058e-09 1.3058e-09 -5.58091e-09 -5.58091e-09 -5.58091e-09 -5.58091e-09 2.37238e-08 2.37238e-08 -5.58091e-09 -5.58091e-09 2.37238e-08 2.37238e-08 2.37238e-08 2.37238e-08 -9.98688e-08 -9.98688e-08 2.37238e-08 2.37238e-08 -9.98688e-08 -9.98688e-08 -5.58091e-09 -5.58091e-09 2.37238e-08 2.37238e-08 -5.58091e-09 -5.58091e-09 2.37238e-08 2.37238e-08 2.37238e-08 2.37238e-08 -9.98688e-08 -9.98688e-08 2.37238e-08 2.37238e-08 -9.98688e-08 -9.98688e-08 -3.01936e-10 -3.01936e-10 1.3058e-09 1.3058e-09 -3.01936e-10 -3.01937e-10 1.3058e-09 1.3058e-09 1.3058e-09 1.3058e-09 -5.58091e-09 -5.5809e-09 1.3058e-09 1.3058e-09 -5.5809e-09 -5.58091e-09 -3.01937e-10 -3.01934e-10 1.3058e-09 1.30579e-09 -3.01934e-10 -3.01943e-10 1.30579e-09 1.30582e-09 1.3058e-09 1.30579e-09 -5.58091e-09 -5.58089e-09 1.30579e-09 1.30582e