# vtk DataFile Version 3.0
#This file was generated by the deal.II library on 2022/11/2 at 18:39:31
ASCII
DATASET UNSTRUCTURED_GRID

POINTS 4096 double
0 0.5 0
0.03125 0.5 0
0 0.53125 0
0.03125 0.53125 0
0.03125 0.5 0
0.0625 0.5 0
0.03125 0.53125 0
0.0625 0.53125 0
0 0.53125 0
0.03125 0.53125 0
0 0.5625 0
0.03125 0.5625 0
0.03125 0.53125 0
0.0625 0.53125 0
0.03125 0.5625 0
0.0625 0.5625 0
0.0625 0.5 0
0.09375 0.5 0
0.0625 0.53125 0
0.09375 0.53125 0
0.09375 0.5 0
0.125 0.5 0
0.09375 0.53125 0
0.125 0.53125 0
0.0625 0.53125 0
0.09375 0.53125 0
0.0625 0.5625 0
0.09375 0.5625 0
0.09375 0.53125 0
0.125 0.53125 0
0.09375 0.5625 0
0.125 0.5625 0
0 0.5625 0
0.03125 0.5625 0
0 0.59375 0
0.03125 0.59375 0
0.03125 0.5625 0
0.0625 0.5625 0
0.03125 0.59375 0
0.0625 0.59375 0
0 0.59375 0
0.03125 0.59375 0
0 0.625 0
0.03125 0.625 0
0.03125 0.59375 0
0.0625 0.59375 0
0.03125 0.625 0
0.0625 0.625 0
0.0625 0.5625 0
0.09375 0.5625 0
0.0625 0.59375 0
0.09375 0.59375 0
0.09375 0.5625 0
0.125 0.5625 0
0.09375 0.59375 0
0.125 0.59375 0
0.0625 0.59375 0
0.09375 0.59375 0
0.0625 0.625 0
0.09375 0.625 0
0.09375 0.59375 0
0.125 0.59375 0
0.09375 0.625 0
0.125 0.625 0
0.125 0.5 0
0.15625 0.5 0
0.125 0.53125 0
0.15625 0.53125 0
0.15625 0.5 0
0.1875 0.5 0
0.15625 0.53125 0
0.1875 0.53125 0
0.125 0.53125 0
0.15625 0.53125 0
0.125 0.5625 0
0.15625 0.5625 0
0.15625 0.53125 0
0.1875 0.53125 0
0.15625 0.5625 0
0.1875 0.5625 0
0.1875 0.5 0
0.21875 0.5 0
0.1875 0.53125 0
0.21875 0.53125 0
0.21875 0.5 0
0.25 0.5 0
0.21875 0.53125 0
0.25 0.53125 0
0.1875 0.53125 0
0.21875 0.53125 0
0.1875 0.5625 0
0.21875 0.5625 0
0.21875 0.53125 0
0.25 0.53125 0
0.21875 0.5625 0
0.25 0.5625 0
0.125 0.5625 0
0.15625 0.5625 0
0.125 0.59375 0
0.15625 0.59375 0
0.15625 0.5625 0
0.1875 0.5625 0
0.15625 0.59375 0
0.1875 0.59375 0
0.125 0.59375 0
0.15625 0.59375 0
0.125 0.625 0
0.15625 0.625 0
0.15625 0.59375 0
0.1875 0.59375 0
0.15625 0.625 0
0.1875 0.625 0
0.1875 0.5625 0
0.21875 0.5625 0
0.1875 0.59375 0
0.21875 0.59375 0
0.21875 0.5625 0
0.25 0.5625 0
0.21875 0.59375 0
0.25 0.59375 0
0.1875 0.59375 0
0.21875 0.59375 0
0.1875 0.625 0
0.21875 0.625 0
0.21875 0.59375 0
0.25 0.59375 0
0.21875 0.625 0
0.25 0.625 0
0 0.625 0
0.03125 0.625 0
0 0.65625 0
0.03125 0.65625 0
0.03125 0.625 0
0.0625 0.625 0
0.03125 0.65625 0
0.0625 0.65625 0
0 0.65625 0
0.03125 0.65625 0
0 0.6875 0
0.03125 0.6875 0
0.03125 0.65625 0
0.0625 0.65625 0
0.03125 0.6875 0
0.0625 0.6875 0
0.0625 0.625 0
0.09375 0.625 0
0.0625 0.65625 0
0.09375 0.65625 0
0.09375 0.625 0
0.125 0.625 0
0.09375 0.65625 0
0.125 0.65625 0
0.0625 0.65625 0
0.09375 0.65625 0
0.0625 0.6875 0
0.09375 0.6875 0
0.09375 0.65625 0
0.125 0.65625 0
0.09375 0.6875 0
0.125 0.6875 0
0 0.6875 0
0.03125 0.6875 0
0 0.71875 0
0.03125 0.71875 0
0.03125 0.6875 0
0.0625 0.6875 0
0.03125 0.71875 0
0.0625 0.71875 0
0 0.71875 0
0.03125 0.71875 0
0 0.75 0
0.03125 0.75 0
0.03125 0.71875 0
0.0625 0.71875 0
0.03125 0.75 0
0.0625 0.75 0
0.0625 0.6875 0
0.09375 0.6875 0
0.0625 0.71875 0
0.09375 0.71875 0
0.09375 0.6875 0
0.125 0.6875 0
0.09375 0.71875 0
0.125 0.71875 0
0.0625 0.71875 0
0.09375 0.71875 0
0.0625 0.75 0
0.09375 0.75 0
0.09375 0.71875 0
0.125 0.71875 0
0.09375 0.75 0
0.125 0.75 0
0.125 0.625 0
0.15625 0.625 0
0.125 0.65625 0
0.15625 0.65625 0
0.15625 0.625 0
0.1875 0.625 0
0.15625 0.65625 0
0.1875 0.65625 0
0.125 0.65625 0
0.15625 0.65625 0
0.125 0.6875 0
0.15625 0.6875 0
0.15625 0.65625 0
0.1875 0.65625 0
0.15625 0.6875 0
0.1875 0.6875 0
0.1875 0.625 0
0.21875 0.625 0
0.1875 0.65625 0
0.21875 0.65625 0
0.21875 0.625 0
0.25 0.625 0
0.21875 0.65625 0
0.25 0.65625 0
0.1875 0.65625 0
0.21875 0.65625 0
0.1875 0.6875 0
0.21875 0.6875 0
0.21875 0.65625 0
0.25 0.65625 0
0.21875 0.6875 0
0.25 0.6875 0
0.125 0.6875 0
0.15625 0.6875 0
0.125 0.71875 0
0.15625 0.71875 0
0.15625 0.6875 0
0.1875 0.6875 0
0.15625 0.71875 0
0.1875 0.71875 0
0.125 0.71875 0
0.15625 0.71875 0
0.125 0.75 0
0.15625 0.75 0
0.15625 0.71875 0
0.1875 0.71875 0
0.15625 0.75 0
0.1875 0.75 0
0.1875 0.6875 0
0.21875 0.6875 0
0.1875 0.71875 0
0.21875 0.71875 0
0.21875 0.6875 0
0.25 0.6875 0
0.21875 0.71875 0
0.25 0.71875 0
0.1875 0.71875 0
0.21875 0.71875 0
0.1875 0.75 0
0.21875 0.75 0
0.21875 0.71875 0
0.25 0.71875 0
0.21875 0.75 0
0.25 0.75 0
0.25 0.5 0
0.28125 0.5 0
0.25 0.53125 0
0.28125 0.53125 0
0.28125 0.5 0
0.3125 0.5 0
0.28125 0.53125 0
0.3125 0.53125 0
0.25 0.53125 0
0.28125 0.53125 0
0.25 0.5625 0
0.28125 0.5625 0
0.28125 0.53125 0
0.3125 0.53125 0
0.28125 0.5625 0
0.3125 0.5625 0
0.3125 0.5 0
0.34375 0.5 0
0.3125 0.53125 0
0.34375 0.53125 0
0.34375 0.5 0
0.375 0.5 0
0.34375 0.53125 0
0.375 0.53125 0
0.3125 0.53125 0
0.34375 0.53125 0
0.3125 0.5625 0
0.34375 0.5625 0
0.34375 0.53125 0
0.375 0.53125 0
0.34375 0.5625 0
0.375 0.5625 0
0.25 0.5625 0
0.28125 0.5625 0
0.25 0.59375 0
0.28125 0.59375 0
0.28125 0.5625 0
0.3125 0.5625 0
0.28125 0.59375 0
0.3125 0.59375 0
0.25 0.59375 0
0.28125 0.59375 0
0.25 0.625 0
0.28125 0.625 0
0.28125 0.59375 0
0.3125 0.59375 0
0.28125 0.625 0
0.3125 0.625 0
0.3125 0.5625 0
0.34375 0.5625 0
0.3125 0.59375 0
0.34375 0.59375 0
0.34375 0.5625 0
0.375 0.5625 0
0.34375 0.59375 0
0.375 0.59375 0
0.3125 0.59375 0
0.34375 0.59375 0
0.3125 0.625 0
0.34375 0.625 0
0.34375 0.59375 0
0.375 0.59375 0
0.34375 0.625 0
0.375 0.625 0
0.375 0.5 0
0.40625 0.5 0
0.375 0.53125 0
0.40625 0.53125 0
0.40625 0.5 0
0.4375 0.5 0
0.40625 0.53125 0
0.4375 0.53125 0
0.375 0.53125 0
0.40625 0.53125 0
0.375 0.5625 0
0.40625 0.5625 0
0.40625 0.53125 0
0.4375 0.53125 0
0.40625 0.5625 0
0.4375 0.5625 0
0.4375 0.5 0
0.46875 0.5 0
0.4375 0.53125 0
0.46875 0.53125 0
0.46875 0.5 0
0.5 0.5 0
0.46875 0.53125 0
0.5 0.53125 0
0.4375 0.53125 0
0.46875 0.53125 0
0.4375 0.5625 0
0.46875 0.5625 0
0.46875 0.53125 0
0.5 0.53125 0
0.46875 0.5625 0
0.5 0.5625 0
0.375 0.5625 0
0.40625 0.5625 0
0.375 0.59375 0
0.40625 0.59375 0
0.40625 0.5625 0
0.4375 0.5625 0
0.40625 0.59375 0
0.4375 0.59375 0
0.375 0.59375 0
0.40625 0.59375 0
0.375 0.625 0
0.40625 0.625 0
0.40625 0.59375 0
0.4375 0.59375 0
0.40625 0.625 0
0.4375 0.625 0
0.4375 0.5625 0
0.46875 0.5625 0
0.4375 0.59375 0
0.46875 0.59375 0
0.46875 0.5625 0
0.5 0.5625 0
0.46875 0.59375 0
0.5 0.59375 0
0.4375 0.59375 0
0.46875 0.59375 0
0.4375 0.625 0
0.46875 0.625 0
0.46875 0.59375 0
0.5 0.59375 0
0.46875 0.625 0
0.5 0.625 0
0.25 0.625 0
0.28125 0.625 0
0.25 0.65625 0
0.28125 0.65625 0
0.28125 0.625 0
0.3125 0.625 0
0.28125 0.65625 0
0.3125 0.65625 0
0.25 0.65625 0
0.28125 0.65625 0
0.25 0.6875 0
0.28125 0.6875 0
0.28125 0.65625 0
0.3125 0.65625 0
0.28125 0.6875 0
0.3125 0.6875 0
0.3125 0.625 0
0.34375 0.625 0
0.3125 0.65625 0
0.34375 0.65625 0
0.34375 0.625 0
0.375 0.625 0
0.34375 0.65625 0
0.375 0.65625 0
0.3125 0.65625 0
0.34375 0.65625 0
0.3125 0.6875 0
0.34375 0.6875 0
0.34375 0.65625 0
0.375 0.65625 0
0.34375 0.6875 0
0.375 0.6875 0
0.25 0.6875 0
0.28125 0.6875 0
0.25 0.71875 0
0.28125 0.71875 0
0.28125 0.6875 0
0.3125 0.6875 0
0.28125 0.71875 0
0.3125 0.71875 0
0.25 0.71875 0
0.28125 0.71875 0
0.25 0.75 0
0.28125 0.75 0
0.28125 0.71875 0
0.3125 0.71875 0
0.28125 0.75 0
0.3125 0.75 0
0.3125 0.6875 0
0.34375 0.6875 0
0.3125 0.71875 0
0.34375 0.71875 0
0.34375 0.6875 0
0.375 0.6875 0
0.34375 0.71875 0
0.375 0.71875 0
0.3125 0.71875 0
0.34375 0.71875 0
0.3125 0.75 0
0.34375 0.75 0
0.34375 0.71875 0
0.375 0.71875 0
0.34375 0.75 0
0.375 0.75 0
0.375 0.625 0
0.40625 0.625 0
0.375 0.65625 0
0.40625 0.65625 0
0.40625 0.625 0
0.4375 0.625 0
0.40625 0.65625 0
0.4375 0.65625 0
0.375 0.65625 0
0.40625 0.65625 0
0.375 0.6875 0
0.40625 0.6875 0
0.40625 0.65625 0
0.4375 0.65625 0
0.40625 0.6875 0
0.4375 0.6875 0
0.4375 0.625 0
0.46875 0.625 0
0.4375 0.65625 0
0.46875 0.65625 0
0.46875 0.625 0
0.5 0.625 0
0.46875 0.65625 0
0.5 0.65625 0
0.4375 0.65625 0
0.46875 0.65625 0
0.4375 0.6875 0
0.46875 0.6875 0
0.46875 0.65625 0
0.5 0.65625 0
0.46875 0.6875 0
0.5 0.6875 0
0.375 0.6875 0
0.40625 0.6875 0
0.375 0.71875 0
0.40625 0.71875 0
0.40625 0.6875 0
0.4375 0.6875 0
0.40625 0.71875 0
0.4375 0.71875 0
0.375 0.71875 0
0.40625 0.71875 0
0.375 0.75 0
0.40625 0.75 0
0.40625 0.71875 0
0.4375 0.71875 0
0.40625 0.75 0
0.4375 0.75 0
0.4375 0.6875 0
0.46875 0.6875 0
0.4375 0.71875 0
0.46875 0.71875 0
0.46875 0.6875 0
0.5 0.6875 0
0.46875 0.71875 0
0.5 0.71875 0
0.4375 0.71875 0
0.46875 0.71875 0
0.4375 0.75 0
0.46875 0.75 0
0.46875 0.71875 0
0.5 0.71875 0
0.46875 0.75 0
0.5 0.75 0
0 0.75 0
0.03125 0.75 0
0 0.78125 0
0.03125 0.78125 0
0.03125 0.75 0
0.0625 0.75 0
0.03125 0.78125 0
0.0625 0.78125 0
0 0.78125 0
0.03125 0.78125 0
0 0.8125 0
0.03125 0.8125 0
0.03125 0.78125 0
0.0625 0.78125 0
0.03125 0.8125 0
0.0625 0.8125 0
0.0625 0.75 0
0.09375 0.75 0
0.0625 0.78125 0
0.09375 0.78125 0
0.09375 0.75 0
0.125 0.75 0
0.09375 0.78125 0
0.125 0.78125 0
0.0625 0.78125 0
0.09375 0.78125 0
0.0625 0.8125 0
0.09375 0.8125 0
0.09375 0.78125 0
0.125 0.78125 0
0.09375 0.8125 0
0.125 0.8125 0
0 0.8125 0
0.03125 0.8125 0
0 0.84375 0
0.03125 0.84375 0
0.03125 0.8125 0
0.0625 0.8125 0
0.03125 0.84375 0
0.0625 0.84375 0
0 0.84375 0
0.03125 0.84375 0
0 0.875 0
0.03125 0.875 0
0.03125 0.84375 0
0.0625 0.84375 0
0.03125 0.875 0
0.0625 0.875 0
0.0625 0.8125 0
0.09375 0.8125 0
0.0625 0.84375 0
0.09375 0.84375 0
0.09375 0.8125 0
0.125 0.8125 0
0.09375 0.84375 0
0.125 0.84375 0
0.0625 0.84375 0
0.09375 0.84375 0
0.0625 0.875 0
0.09375 0.875 0
0.09375 0.84375 0
0.125 0.84375 0
0.09375 0.875 0
0.125 0.875 0
0.125 0.75 0
0.15625 0.75 0
0.125 0.78125 0
0.15625 0.78125 0
0.15625 0.75 0
0.1875 0.75 0
0.15625 0.78125 0
0.1875 0.78125 0
0.125 0.78125 0
0.15625 0.78125 0
0.125 0.8125 0
0.15625 0.8125 0
0.15625 0.78125 0
0.1875 0.78125 0
0.15625 0.8125 0
0.1875 0.8125 0
0.1875 0.75 0
0.21875 0.75 0
0.1875 0.78125 0
0.21875 0.78125 0
0.21875 0.75 0
0.25 0.75 0
0.21875 0.78125 0
0.25 0.78125 0
0.1875 0.78125 0
0.21875 0.78125 0
0.1875 0.8125 0
0.21875 0.8125 0
0.21875 0.78125 0
0.25 0.78125 0
0.21875 0.8125 0
0.25 0.8125 0
0.125 0.8125 0
0.15625 0.8125 0
0.125 0.84375 0
0.15625 0.84375 0
0.15625 0.8125 0
[...]
POINT_DATA 4096
SCALARS x_dis double 1
LOOKUP_TABLE default
1.54268e-14 1.98401e-14 -8.70331e-14 -7.57855e-14 1.98401e-14 1.6316e-14 -7.57855e-14 -6.74437e-14 -8.70331e-14 -7.57855e-14 2.46663e-13 3.08185e-13 -7.57855e-14 -6.74437e-14 3.08185e-13 2.75608e-13 1.6316e-14 1.73767e-14 -6.74437e-14 -7.04216e-14 1.73767e-14 1.75888e-14 -7.04216e-14 -7.17452e-14 -6.74437e-14 -7.04216e-14 2.75608e-13 2.79682e-13 -7.04216e-14 -7.17452e-14 2.79682e-13 2.86871e-13 2.46663e-13 3.08185e-13 -1.31149e-12 -1.14227e-12 3.08185e-13 2.75608e-13 -1.14227e-12 -1.09675e-12 -1.31149e-12 -1.14227e-12 3.66491e-12 4.45114e-12 -1.14227e-12 -1.09675e-12 4.45114e-12 4.3108e-12 2.75608e-13 2.79682e-13 -1.09675e-12 -1.09205e-12 2.79682e-13 2.86871e-13 -1.09205e-12 -1.12845e-12 -1.09675e-12 -1.09205e-12 4.3108e-12 4.19629e-12 -1.09205e-12 -1.12845e-12 4.19629e-12 4.34676e-12 1.75888e-14 1.72204e-14 -7.17452e-14 -7.01044e-14 1.72204e-14 1.7496e-14 -7.01044e-14 -7.12694e-14 -7.17452e-14 -7.01044e-14 2.86871e-13 2.80553e-13 -7.01044e-14 -7.12694e-14 2.80553e-13 2.84383e-13 1.7496e-14 1.73502e-14 -7.12694e-14 -7.06686e-14 1.73502e-14 1.74182e-14 -7.06686e-14 -7.09422e-14 -7.12694e-14 -7.06686e-14 2.84383e-13 2.82591e-13 -7.06686e-14 -7.09422e-14 2.82591e-13 2.83346e-13 2.86871e-13 2.80553e-13 -1.12845e-12 -1.10102e-12 2.80553e-13 2.84383e-13 -1.10102e-12 -1.11689e-12 -1.12845e-12 -1.10102e-12 4.34676e-12 4.252e-12 -1.10102e-12 -1.11689e-12 4.252e-12 4.29963e-12 2.84383e-13 2.82591e-13 -1.11689e-12 -1.10967e-12 2.82591e-13 2.83346e-13 -1.10967e-12 -1.11264e-12 -1.11689e-12 -1.10967e-12 4.29963e-12 4.27981e-12 -1.10967e-12 -1.11264e-12 4.27981e-12 4.28732e-12 3.66491e-12 4.45114e-12 -1.85042e-11 -1.58755e-11 4.45114e-12 4.3108e-12 -1.58755e-11 -1.64761e-11 -1.85042e-11 -1.58755e-11 4.99488e-11 5.85335e-11 -1.58755e-11 -1.64761e-11 5.85335e-11 6.19136e-11 4.3108e-12 4.19629e-12 -1.64761e-11 -1.57147e-11 4.19629e-12 4.34676e-12 -1.57147e-11 -1.64299e-11 -1.64761e-11 -1.57147e-11 6.19136e-11 5.79871e-11 -1.57147e-11 -1.64299e-11 5.79871e-11 6.05135e-11 4.99488e-11 5.85335e-11 -2.40479e-10 -1.96042e-10 5.85335e-11 6.19136e-11 -1.96042e-10 -2.23717e-10 -2.40479e-10 -1.96042e-10 5.80017e-10 6.62622e-10 -1.96042e-10 -2.23717e-10 6.62622e-10 7.8812e-10 6.19136e-11 5.79871e-11 -2.23717e-10 -2.0491e-10 5.79871e-11 6.05135e-11 -2.0491e-10 -2.1654e-10 -2.23717e-10 -2.0491e-10 7.8812e-10 7.02422e-10 -2.0491e-10 -2.1654e-10 7.02422e-10 7.41901e-10 4.34676e-12 4.252e-12 -1.64299e-11 -1.60257e-11 4.252e-12 4.29963e-12 -1.60257e-11 -1.622e-11 -1.64299e-11 -1.60257e-11 6.05135e-11 5.92618e-11 -1.60257e-11 -1.622e-11 5.92618e-11 5.97845e-11 4.29963e-12 4.27981e-12 -1.622e-11 -1.61421e-11 4.27981e-12 4.28732e-12 -1.61421e-11 -1.61707e-11 -1.622e-11 -1.61421e-11 5.97845e-11 5.95924e-11 -1.61421e-11 -1.61707e-11 5.95924e-11 5.96565e-11 6.05135e-11 5.92618e-11 -2.1654e-10 -2.11227e-10 5.92618e-11 5.97845e-11 -2.11227e-10 -2.13366e-10 -2.1654e-10 -2.11227e-10 7.41901e-10 7.26027e-10 -2.11227e-10 -2.13366e-10 7.26027e-10 7.31322e-10 5.97845e-11 5.95924e-11 -2.13366e-10 -2.1263e-10 5.95924e-11 5.96565e-11 -2.1263e-10 -2.12863e-10 -2.13366e-10 -2.1263e-10 7.31322e-10 7.29764e-10 -2.1263e-10 -2.12863e-10 7.29764e-10 7.30168e-10 1.74182e-14 1.73896e-14 -7.09422e-14 -7.08295e-14 1.73896e-14 1.74008e-14 -7.08295e-14 -7.08725e-14 -7.09422e-14 -7.08295e-14 2.83346e-13 2.83056e-13 -7.08295e-14 -7.08725e-14 2.83056e-13 2.8316e-13 1.74008e-14 1.73964e-14 -7.08725e-14 -7.08572e-14 1.73964e-14 1.73992e-14 -7.08572e-14 -7.08617e-14 -7.08725e-14 -7.08572e-14 2.8316e-13 2.83125e-13 -7.08572e-14 -7.08617e-14 2.83125e-13 2.83136e-13 2.83346e-13 2.83056e-13 -1.11264e-12 -1.11152e-12 2.83056e-13 2.8316e-13 -1.11152e-12 -1.11191e-12 -1.11264e-12 -1.11152e-12 4.28732e-12 4.28471e-12 -1.11152e-12 -1.11191e-12 4.28471e-12 4.28555e-12 2.8316e-13 2.83125e-13 -1.11191e-12 -1.11178e-12 2.83125e-13 2.83136e-13 -1.11178e-12 -1.11182e-12 -1.11191e-12 -1.11178e-12 4.28555e-12 4.28529e-12 -1.11178e-12 -1.11182e-12 4.28529e-12 4.28537e-12 1.73992e-14 1.73941e-14 -7.08617e-14 -7.0863e-14 1.73941e-14 1.73974e-14 -7.0863e-14 -7.08559e-14 -7.08617e-14 -7.0863e-14 2.83136e-13 2.83133e-13 -7.0863e-14 -7.08559e-14 2.83133e-13 2.83133e-13 1.73974e-14 1.75183e-14 -7.08559e-14 -7.08391e-14 1.75183e-14 1.6047e-14 -7.08391e-14 -7.12695e-14 -7.08559e-14 -7.08391e-14 2.83133e-13 2.83136e-13 -7.08391e-14 -7.12695e-14 2.83136e-13 2.83023e-13 2.83136e-13 2.83133e-13 -1.11182e-12 -1.11181e-12 2.83133e-13 2.83133e-13 -1.11181e-12 -1.11182e-12 -1.11182e-12 -1.11181e-12 4.28537e-12 4.28535e-12 -1.11181e-12 -1.11182e-12 4.28535e-12 4.28535e-12 2.83133e-13 2.83136e-13 -1.11182e-12 -1.11181e-12 2.83136e-13 2.83023e-13 -1.11181e-12 -1.11182e-12 -1.11182e-12 -1.11181e-12 4.28535e-12 4.28535e-12 -1.11181e-12 -1.11182e-12 4.28535e-12 4.28535e-12 4.28732e-12 4.28471e-12 -1.61707e-11 -1.6161e-11 4.28471e-12 4.28555e-12 -1.6161e-11 -1.61641e-11 -1.61707e-11 -1.6161e-11 5.96565e-11 5.96369e-11 -1.6161e-11 -1.61641e-11 5.96369e-11 5.96425e-11 4.28555e-12 4.28529e-12 -1.61641e-11 -1.61632e-11 4.28529e-12 4.28537e-12 -1.61632e-11 -1.61634e-11 -1.61641e-11 -1.61632e-11 5.96425e-11 5.9641e-11 -1.61632e-11 -1.61634e-11 5.9641e-11 5.96414e-11 5.96565e-11 5.96369e-11 -2.12863e-10 -2.12795e-10 5.96369e-11 5.96425e-11 -2.12795e-10 -2.12813e-10 -2.12863e-10 -2.12795e-10 7.30168e-10 7.30077e-10 -2.12795e-10 -2.12813e-10 7.30077e-10 7.30094e-10 5.96425e-11 5.9641e-11 -2.12813e-10 -2.12809e-10 5.9641e-11 5.96414e-11 -2.12809e-10 -2.1281e-10 -2.12813e-10 -2.12809e-10 7.30094e-10 7.30092e-10 -2.12809e-10 -2.1281e-10 7.30092e-10 7.30092e-10 4.28537e-12 4.28535e-12 -1.61634e-11 -1.61633e-11 4.28535e-12 4.28535e-12 -1.61633e-11 -1.61634e-11 -1.61634e-11 -1.61633e-11 5.96414e-11 5.96413e-11 -1.61633e-11 -1.61634e-11 5.96413e-11 5.96413e-11 4.28535e-12 4.28535e-12 -1.61634e-11 -1.61634e-11 4.28535e-12 4.28535e-12 -1.61634e-11 -1.61634e-11 -1.61634e-11 -1.61634e-11 5.96413e-11 5.96413e-11 -1.61634e-11 -1.61634e-11 5.96413e-11 5.96413e-11 5.96414e-11 5.96413e-11 -2.1281e-10 -2.1281e-10 5.96413e-11 5.96413e-11 -2.1281e-10 -2.1281e-10 -2.1281e-10 -2.1281e-10 7.30092e-10 7.30092e-10 -2.1281e-10 -2.1281e-10 7.30092e-10 7.30092e-10 5.96413e-11 5.96413e-11 -2.1281e-10 -2.1281e-10 5.96413e-11 5.96413e-11 -2.1281e-10 -2.1281e-10 -2.1281e-10 -2.1281e-10 7.30092e-10 7.30092e-10 -2.1281e-10 -2.1281e-10 7.30092e-10 7.30092e-10 5.80017e-10 6.62622e-10 -2.76523e-09 -1.93207e-09 6.62622e-10 7.8812e-10 -1.93207e-09 -2.57356e-09 -2.76523e-09 -1.93207e-09 4.84432e-09 5.17282e-09 -1.93207e-09 -2.57356e-09 5.17282e-09 7.90157e-09 7.8812e-10 7.02422e-10 -2.57356e-09 -2.23084e-09 7.02422e-10 7.41901e-10 -2.23084e-09 -2.3899e-09 -2.57356e-09 -2.23084e-09 7.90157e-09 6.49686e-09 -2.23084e-09 -2.3899e-09 6.49686e-09 6.98731e-09 4.84432e-09 5.17282e-09 -2.45545e-08 -7.52745e-09 5.17282e-09 7.90157e-09 -7.52745e-09 -1.90083e-08 -2.45545e-08 -7.52745e-09 -1.35102e-08 -1.61276e-08 -7.52745e-09 -1.90083e-08 -1.61276e-08 2.72582e-08 7.90157e-09 6.49686e-09 -1.90083e-08 -1.46431e-08 6.49686e-09 6.98731e-09 -1.46431e-08 -1.61732e-08 -1.90083e-08 -1.46431e-08 2.72582e-08 8.81477e-09 -1.46431e-08 -1.61732e-08 8.81477e-09 1.40504e-08 7.41901e-10 7.26027e-10 -2.3899e-09 -2.32896e-09 7.26027e-10 7.31322e-10 -2.32896e-09 -2.35e-09 -2.3899e-09 -2.32896e-09 6.98731e-09 6.83498e-09 -2.32896e-09 -2.35e-09 6.83498e-09 6.87438e-09 7.31322e-10 7.29764e-10 -2.35e-09 -2.34366e-09 7.29764e-10 7.30168e-10 -2.34366e-09 -2.34541e-09 -2.35e-09 -2.34366e-09 6.87438e-09 6.86585e-09 -2.34366e-09 -2.34541e-09 6.86585e-09 6.86723e-09 6.98731e-09 6.83498e-09 -1.61732e-08 -1.57185e-08 6.83498e-09 6.87438e-09 -1.57185e-08 -1.58449e-08 -1.61732e-08 -1.57185e-08 1.40504e-08 1.2851e-08 -1.57185e-08 -1.58449e-08 1.2851e-08 1.30591e-08 6.87438e-09 6.86585e-09 -1.58449e-08 -1.58129e-08 6.86585e-09 6.86723e-09 -1.58129e-08 -1.58202e-08 -1.58449e-08 -1.58129e-08 1.30591e-08 1.30417e-08 -1.58129e-08 -1.58202e-08 1.30417e-08 1.30356e-08 -1.35102e-08 -1.61276e-08 -5.13313e-08 2.99175e-07 -1.61276e-08 2.72582e-08 2.99175e-07 1.47585e-07 -5.13313e-08 2.99175e-07 -1.93016e-06 -1.95288e-06 2.99175e-07 1.47585e-07 -1.95288e-06 -1.51187e-06 2.72582e-08 8.81477e-09 1.47585e-07 1.81758e-07 8.81477e-09 1.40504e-08 1.81758e-07 1.7604e-07 1.47585e-07 1.81758e-07 -1.51187e-06 -1.67215e-06 1.81758e-07 1.7604e-07 -1.67215e-06 -1.63269e-06 -1.93016e-06 -1.95288e-06 5.13271e-06 1.18743e-05 -1.95288e-06 -1.51187e-06 1.18743e-05 1.08852e-05 5.13271e-06 1.18743e-05 -6e-05 -6e-05 1.18743e-05 1.08852e-05 -6e-05 -6e-05 -1.51187e-06 -1.67215e-06 1.08852e-05 1.09596e-05 -1.67215e-06 -1.63269e-06 1.09596e-05 1.09724e-05 1.08852e-05 1.09596e-05 -6e-05 -6e-05 1.09596e-05 1.09724e-05 -6e-05 -6e-05 1.40504e-08 1.2851e-08 1.7604e-07 1.76373e-07 1.2851e-08 1.30591e-08 1.76373e-07 1.76554e-07 1.7604e-07 1.76373e-07 -1.63269e-06 -1.64096e-06 1.76373e-07 1.76554e-07 -1.64096e-06 -1.6396e-06 1.30591e-08 1.30417e-08 1.76554e-07 1.76456e-07 1.30417e-08 1.30356e-08 1.76456e-07 1.76489e-07 1.76554e-07 1.76456e-07 -1.6396e-06 -1.63972e-06 1.76456e-07 1.76489e-07 -1.63972e-06 -1.63975e-06 -1.63269e-06 -1.64096e-06 1.09724e-05 1.0964e-05 -1.64096e-06 -1.6396e-06 1.0964e-05 1.09669e-05 1.09724e-05 1.0964e-05 -6e-05 -6e-05 1.0964e-05 1.09669e-05 -6e-05 -6e-05 -1.6396e-06 -1.63972e-06 1.09669e-05 1.09661e-05 -1.63972e-06 -1.63975e-06 1.09661e-05 1.09663e-05 1.09669e-05 1.09661e-05 -6e-05 -6e-05 1.09661e-05 1.09663e-05 -6e-05 -6e-05 7.30168e-10 7.30077e-10 -2.34541e-09 -2.34498e-09 7.30077e-10 7.30094e-10 -2.34498e-09 -2.34507e-09 -2.34541e-09 -2.34498e-09 6.86723e-09 6.86717e-09 -2.34498e-09 -2.34507e-09 6.86717e-09 6.86709e-09 7.30094e-10 7.30092e-10 -2.34507e-09 -2.34505e-09 7.30092e-10 7.30092e-10 -2.34505e-09 -2.34505e-09 -2.34507e-09 -2.34505e-09 6.86709e-09 6.86714e-09 -2.34505e-09 -2.34505e-09 6.86714e-09 6.86712e-09 6.86723e-09 6.86717e-09 -1.58202e-08 -1.58187e-08 6.86717e-09 6.86709e-09 -1.58187e-08 -1.58189e-08 -1.58202e-08 -1.58187e-08 1.30356e-08 1.30399e-08 -1.58187e-08 -1.58189e-08 1.30399e-08 1.30382e-08 6.86709e-09 6.86714e-09 -1.58189e-08 -1.58189e-08 6.86714e-09 6.86712e-09 -1.58189e-08 -1.58189e-08 -1.58189e-08 -1.58189e-08 1.30382e-08 1.30388e-08 -1.58189e-08 -1.58189e-08 1.30388e-08 1.30386e-08 7.30092e-10 7.30092e-10 -2.34505e-09 -2.34505e-09 7.30092e-10 7.30092e-10 -2.34505e-09 -2.34505e-09 -2.34505e-09 -2.34505e-09 6.86712e-09 6.86713e-09 -2.34505e-09 -2.34505e-09 6.86713e-09 6.86713e-09 7.30092e-10 7.30092e-10 -2.34505e-09 -2.34505e-09 7.30092e-10 7.30092e-10 -2.34505e-09 -2.34505e-09 -2.34505e-09 -2.34505e-09 6.86713e-09 6.86713e-09 -2.34505e-09 -2.34505e-09 6.86713e-09 6.86713e-09 6.86712e-09 6.86713e-09 -1.58189e-08 -1.58189e-08 6.86713e-09 6.86713e-09 -1.58189e-08 -1.58189e-08 -1.58189e-08 -1.58189e-08 1.30386e-08 1.30386e-08 -1.58189e-08 -1.58189e-08 1.30386e-08 1.30386e-08 6.86713e-09 6.86713e-09 -1.58189e-08 -1.58189e-08 6.86713e-09 6.86713e-09 -1.58189e-08 -1.58189e-08 -1.58189e-08 -1.58189e-08 1.30386e-08 1.30386e-08 -1.58189e-08 -1.58189e-08 1.30386e-08 1.30386e-08 1.30356e-08 1.30399e-08 1.76489e-07 1.7648e-07 1.30399e-08 1.30382e-08 1.7648e-07 1.76482e-07 1.76489e-07 1.7648e-07 -1.63975e-06 -1.63973e-06 1.7648e-07 1.76482e-07 -1.63973e-06 -1.63974e-06 1.30382e-08 1.30388e-08 1.76482e-07 1.76481e-07 1.30388e-08 1.30386e-08 1.76481e-07 1.76481e-07 1.76482e-07 1.76481e-07 -1.63974e-06 -1.63973e-06 1.76481e-07 1.76481e-07 -1.63973e-06 -1.63974e-06 -1.63975e-06 -1.63973e-06 1.09663e-05 1.09662e-05 -1.63973e-06 -1.63974e-06 1.09662e-05 1.09663e-05 1.09663e-05 1.09662e-05 -6e-05 -6e-05 1.09662e-05 1.09663e-05 -6e-05 -6e-05 -1.63974e-06 -1.63973e-06 1.09663e-05 1.09663e-05 -1.63973e-06 -1.63974e-06 1.09663e-05 1.09663e-05 1.09663e-05 1.09663e-05 -6e-05 -6e-05 1.09663e-05 1.09663e-05 -6e-05 -6e-05 1.30386e-08 1.30386e-08 1.76481e-07 1.76481e-07 1.30386e-08 1.30386e-08 1.76481e-07 1.76481e-07 1.76481e-07 1.76481e-07 -1.63974e-06 -1.63974e-06 1.76481e-07 1.76481e-07 -1.63974e-06 -1.63974e-06 1.30386e-08 1.30386e-08 1.76481e-07 1.76481e-07 1.30386e-08 1.30386e-08 1.76481e-07 1.76481e-07 1.76481e-07 1.76481e-07 -1.63974e-06 -1.63974e-06 1.76481e-07 1.76481e-07 -1.63974e-06 -1.63974e-06 -1.63974e-06 -1.63974e-06 1.09663e-05 1.09663e-05 -1.63974e-06 -1.63974e-06 1.09663e-05 1.09663e-05 1.09663e-05 1.09663e-05 -6e-05 -6e-05 1.09663e-05 1.09663e-05 -6e-05 -6e-05 -1.63974e-06 -1.63974e-06 1.09663e-05 1.09663e-05 -1.63974e-06 -1.63974e-06 1.09663e-05 1.09663e-05 1.09663e-05 1.09663e-05 -6e-05 -6e-05 1.09663e-05 1.09663e-05 -6e-05 -6e-05 1.6047e-14 3.93929e-14 -7.12695e-14 -7.61197e-14 3.93929e-14 3.44941e-14 -7.61197e-14 -7.50455e-14 -7.12695e-14 -7.61197e-14 2.83023e-13 2.84245e-13 -7.61197e-14 -7.50455e-14 2.84245e-13 2.84176e-13 3.44941e-14 3.50989e-14 -7.50455e-14 -7.52017e-14 3.50989e-14 3.50267e-14 -7.52017e-14 -7.52013e-14 -7.50455e-14 -7.52017e-14 2.84176e-13 2.84139e-13 -7.52017e-14 -7.52013e-14 2.84139e-13 2.84152e-13 2.83023e-13 2.84245e-13 -1.11182e-12 -1.11209e-12 2.84245e-13 2.84176e-13 -1.11209e-12 -1.11205e-12 -1.11182e-12 -1.11209e-12 4.28535e-12 4.28541e-12 -1.11209e-12 -1.11205e-12 4.28541e-12 4.28541e-12 2.84176e-13 2.84139e-13 -1.11205e-12 -1.11205e-12 2.84139e-13 2.84152e-13 -1.11205e-12 -1.11205e-12 -1.11205e-12 -1.11205e-12 4.28541e-12 4.28541e-12 -1.11205e-12 -1.11205e-12 4.28541e-12 4.28539e-12 3.50267e-14 3.50205e-14 -7.52013e-14 -7.51915e-14 3.50205e-14 3.50242e-14 -7.51915e-14 -7.51922e-14 -7.52013e-14 -7.51915e-14 2.84152e-13 2.84153e-13 -7.51915e-14 -7.51922e-14 2.84153e-13 2.84137e-13 3.50242e-14 3.50291e-14 -7.51922e-14 -7.52032e-14 3.50291e-14 3.50134e-14 -7.52032e-14 -7.51737e-14 -7.51922e-14 -7.52032e-14 2.84137e-13 2.84181e-13 -7.52032e-14 -7.51737e-14 2.84181e-13 2.8408e-13 2.84152e-13 2.84153e-13 -1.11205e-12 -1.11206e-12 2.84153e-13 2.84137e-13 -1.11206e-12 -1.11202e-12 -1.11205e-12 -1.11206e-12 4.28539e-12 4.28545e-12 -1.11206e-12 -1.11202e-12 4.28545e-12 4.28529e-12 2.84137e-13 2.84181e-13 -1.11202e-12 -1.11213e-12 2.84181e-13 2.8408e-13 -1.11213e-12 -1.11186e-12 -1.11202e-12 -1.11213e-12 4.28529e-12 4.28572e-12 -1.11213e-12 -1.11186e-12 4.28572e-12 4.28464e-12 4.28535e-12 4.28541e-12 -1.61634e-11 -1.61634e-11 4.28541e-12 4.28541e-12 -1.61634e-11 -1.61634e-11 -1.61634e-11 -1.61634e-11 5.96413e-11 5.96413e-11 -1.61634e-11 -1.61634e-11 5.96413e-11 5.96413e-11 4.28541e-12 4.28541e-12 -1.61634e-11 -1.61634e-11 4.28541e-12 4.28539e-12 -1.61634e-11 -1.61633e-11 -1.61634e-11 -1.61634e-11 5.96413e-11 5.96413e-11 -1.61634e-11 -1.61633e-11 5.96413e-11 5.96412e-11 5.96413e-11 5.96413e-11 -2.1281e-10 -2.1281e-10 5.96413e-11 5.96413e-11 -2.1281e-10 -2.1281e-10 -2.1281e-10 -2.1281e-10 7.30092e-10 7.30092e-10 -2.1281e-10 -2.1281e-10 7.30092e-10 7.30092e-10 5.96413e-11 5.96413e-11 -2.1281e-10 -2.1281e-10 5.96413e-11 5.96412e-11 -2.1281e-10 -2.12809e-10 -2.1281e-10 -2.1281e-10 7.30092e-10 7.30092e-10 -2.1281e-10 -2.12809e-10 7.30092e-10 7.30091e-10 4.28539e-12 4.28545e-12 -1.61633e-11 -1.61635e-11 4.28545e-12 4.28529e-12 -1.61635e-11 -1.61631e-11 -1.61633e-11 -1.61635e-11 5.96412e-11 5.96416e-11 -1.61635e-11 -1.61631e-11 5.96416e-11 5.96403e-11 4.28529e-12 4.28572e-12 -1.61631e-11 -1.61641e-11 4.28572e-12 4.28464e-12 -1.61641e-11 -1.61614e-11 -1.61631e-11 -1.61641e-11 5.96403e-11 5.96441e-11 -1.61641e-11 -1.61614e-11 5.96441e-11 5.96337e-11 5.96412e-11 5.96416e-11 -2.12809e-10 -2.1281e-10 5.96416e-11 5.96403e-11 -2.1281e-10 -2.12808e-10 -2.12809e-10 -2.1281e-10 7.30091e-10 7.30094e-10 -2.1281e-10 -2.12808e-10 7.30094e-10 7.30086e-10 5.96403e-11 5.96441e-11 -2.12808e-10 -2.12815e-10 5.96441e-11 5.96337e-11 -2.12815e-10 -2.12793e-10 -2.12808e-10 -2.12815e-10 7.30086e-10 7.30111e-10 -2.12815e-10 -2.12793e-10 7.30111e-10 7.30032e-10 3.50134e-14 3.50459e-14 -7.51737e-14 -7.52355e-14 3.50459e-14 3.49888e-14 -7.52355e-14 -7.51246e-14 -7.51737e-14 -7.52355e-14 2.8408e-13 2.84292e-13 -7.52355e-14 -7.51246e-14 2.84292e-13 2.83899e-13 3.49888e-14 3.50779e-14 -7.51246e-14 -7.52958e-14 3.50779e-14 3.49196e-14 -7.52958e-14 -7.50167e-14 -7.51246e-14 -7.52958e-14 2.83899e-13 2.8454e-13 -7.52958e-14 -7.50167e-14 2.8454e-13 2.83469e-13 2.8408e-13 2.84292e-13 -1.11186e-12 -1.11247e-12 2.84292e-13 2.83899e-13 -1.11247e-12 -1.11124e-12 -1.11186e-12 -1.11247e-12 4.28464e-12 4.28713e-12 -1.11247e-12 -1.11124e-12 4.28713e-12 4.28192e-12 2.83899e-13 2.8454e-13 -1.11124e-12 -1.11341e-12 2.8454e-13 2.83469e-13 -1.11341e-12 -1.10977e-12 -1.11124e-12 -1.11341e-12 4.28192e-12 4.29169e-12 -1.11341e-12 -1.10977e-12 4.29169e-12 4.27478e-12 3.49196e-14 3.53829e-14 -7.50167e-14 -7.58136e-14 3.53829e-14 3.40853e-14 -7.58136e-14 -7.33714e-14 -7.50167e-14 -7.58136e-14 2.83469e-13 2.86057e-13 -7.58136e-14 -7.33714e-14 2.86057e-13 2.80166e-13 3.40853e-14 3.50914e-14 -7.33714e-14 -7.89668e-14 3.50914e-14 4.53214e-14 -7.89668e-14 -6.84598e-14 -7.33714e-14 -7.89668e-14 2.80166e-13 2.81016e-13 -7.89668e-14 -6.84598e-14 2.81016e-13 3.48109e-13 2.83469e-13 2.86057e-13 -1.10977e-12 -1.11708e-12 2.86057e-13 2.80166e-13 -1.11708e-12 -1.10361e-12 -1.10977e-12 -1.11708e-12 4.27478e-12 4.304e-12 -1.11708e-12 -1.10361e-12 4.304e-12 4.27518e-12 2.80166e-13 2.81016e-13 -1.10361e-12 -1.13187e-12 2.81016e-13 3.48109e-13 -1.13187e-12 -9.72026e-13 -1.10361e-12 -1.13187e-12 4.27518e-12 4.16303e-12 -1.13187e-12 -9.72026e-13 4.16303e-12 4.98878e-12 4.28464e-12 4.28713e-12 -1.61614e-11 -1.61682e-11 4.28713e-12 4.28192e-12 -1.61682e-11 -1.61527e-11 -1.61614e-11 -1.61682e-11 5.96337e-11 5.96608e-11 -1.61682e-11 -1.61527e-11 5.96608e-11 5.95956e-11 4.28192e-12 4.29169e-12 -1.61527e-11 -1.61847e-11 4.29169e-12 4.27478e-12 -1.61847e-11 -1.61258e-11 -1.61527e-11 -1.61847e-11 5.95956e-11 5.97385e-11 -1.61847e-11 -1.61258e-11 5.97385e-11 5.9463e-11 5.96337e-11 5.96608e-11 -2.12793e-10 -2.12858e-10 5.96608e-11 5.95956e-11 -2.12858e-10 -2.12682e-10 -2.12793e-10 -2.12858e-10 7.30032e-10 7.30268e-10 -2.12858e-10 -2.12682e-10 7.30268e-10 7.29599e-10 5.95956e-11 5.97385e-11 -2.12682e-10 -2.13117e-10 5.97385e-11 5.9463e-11 -2.13117e-10 -2.12195e-10 -2.12682e-10 -2.13117e-10 7.29599e-10 7.31362e-10 -2.13117e-10 -2.12195e-10 7.31362e-10 7.27272e-10 4.27478e-12 4.304e-12 -1.61258e-11 -1.62146e-11 4.304e-12 4.27518e-12 -1.62146e-11 -1.61918e-11 -1.61258e-11 -1.62146e-11 5.9463e-11 5.98723e-11 -1.62146e-11 -1.61918e-11 5.98723e-11 5.98648e-11 4.27518e-12 4.16303e-12 -1.61918e-11 -1.61195e-11 4.16303e-12 4.98878e-12 -1.61195e-11 -1.34606e-11 -1.61918e-11 -1.61195e-11 5.98648e-11 5.72164e-11 -1.61195e-11 -1.34606e-11 5.72164e-11 6.60476e-11 5.9463e-11 5.98723e-11 -2.12195e-10 -2.13505e-10 5.98723e-11 5.98648e-11 -2.13505e-10 -2.14236e-10 -2.12195e-10 -2.13505e-10 7.27272e-10 7.34278e-10 -2.13505e-10 -2.14236e-10 7.34278e-10 7.32788e-10 5.98648e-11 5.72164e-11 -2.14236e-10 -2.10883e-10 5.72164e-11 6.60476e-11 -2.10883e-10 -1.63191e-10 -2.14236e-10 -2.10883e-10 7.32788e-10 6.98088e-10 -2.10883e-10 -1.63191e-10 6.98088e-10 7.77341e-10 7.30092e-10 7.30092e-10 -2.34505e-09 -2.34505e-09 7.30092e-10 7.30092e-10 -2.34505e-09 -2.34505e-09 -2.34505e-09 -2.34505e-09 6.86713e-09 6.86713e-09 -2.34505e-09 -2.34505e-09 6.86713e-09 6.86713e-09 7.30092e-10 7.30092e-10 -2.34505e-09 -2.34505e-09 7.30092e-10 7.30091e-10 -2.34505e-09 -2.34505e-09 -2.34505e-09 -2.34505e-09 6.86713e-09 6.86713e-09 -2.34505e-09 -2.34505e-09 6.86713e-09 6.86712e-09 6.86713e-09 6.86713e-09 -1.58189e-08 -1.58189e-08 6.86713e-09 6.86713e-09 -1.58189e-08 -1.58189e-08 -1.58189e-08 -1.58189e-08 1.30386e-08 1.30386e-08 -1.58189e-08 -1.58189e-08 1.30386e-08 1.30386e-08 6.86713e-09 6.86713e-09 -1.58189e-08 -1.58189e-08 6.86713e-09 6.86712e-09 -1.58189e-08 -1.58189e-08 -1.58189e-08 -1.58189e-08 1.30386e-08 1.30386e-08 -1.58189e-08 -1.58189e-08 1.30386e-08 1.30386e-08 7.30091e-10 7.30094e-10 -2.34505e-09 -2.34506e-09 7.30094e-10 7.30086e-10 -2.34506e-09 -2.34504e-09 -2.34505e-09 -2.34506e-09 6.86712e-09 6.86713e-09 -2.34506e-09 -2.34504e-09 6.86713e-09 6.8671e-09 7.30086e-10 7.30111e-10 -2.34504e-09 -2.3451e-09 7.30111e-10 7.30032e-10 -2.3451e-09 -2.34491e-09 -2.34504e