# vtk DataFile Version 3.0
#This file was generated by the deal.II library on 2022/11/2 at 18:42:44
ASCII
DATASET UNSTRUCTURED_GRID

POINTS 4096 double
0 0.5 0
0.03125 0.5 0
0 0.53125 0
0.03125 0.53125 0
0.03125 0.5 0
0.0625 0.5 0
0.03125 0.53125 0
0.0625 0.53125 0
0 0.53125 0
0.03125 0.53125 0
0 0.5625 0
0.03125 0.5625 0
0.03125 0.53125 0
0.0625 0.53125 0
0.03125 0.5625 0
0.0625 0.5625 0
0.0625 0.5 0
0.09375 0.5 0
0.0625 0.53125 0
0.09375 0.53125 0
0.09375 0.5 0
0.125 0.5 0
0.09375 0.53125 0
0.125 0.53125 0
0.0625 0.53125 0
0.09375 0.53125 0
0.0625 0.5625 0
0.09375 0.5625 0
0.09375 0.53125 0
0.125 0.53125 0
0.09375 0.5625 0
0.125 0.5625 0
0 0.5625 0
0.03125 0.5625 0
0 0.59375 0
0.03125 0.59375 0
0.03125 0.5625 0
0.0625 0.5625 0
0.03125 0.59375 0
0.0625 0.59375 0
0 0.59375 0
0.03125 0.59375 0
0 0.625 0
0.03125 0.625 0
0.03125 0.59375 0
0.0625 0.59375 0
0.03125 0.625 0
0.0625 0.625 0
0.0625 0.5625 0
0.09375 0.5625 0
0.0625 0.59375 0
0.09375 0.59375 0
0.09375 0.5625 0
0.125 0.5625 0
0.09375 0.59375 0
0.125 0.59375 0
0.0625 0.59375 0
0.09375 0.59375 0
0.0625 0.625 0
0.09375 0.625 0
0.09375 0.59375 0
0.125 0.59375 0
0.09375 0.625 0
0.125 0.625 0
0.125 0.5 0
0.15625 0.5 0
0.125 0.53125 0
0.15625 0.53125 0
0.15625 0.5 0
0.1875 0.5 0
0.15625 0.53125 0
0.1875 0.53125 0
0.125 0.53125 0
0.15625 0.53125 0
0.125 0.5625 0
0.15625 0.5625 0
0.15625 0.53125 0
0.1875 0.53125 0
0.15625 0.5625 0
0.1875 0.5625 0
0.1875 0.5 0
0.21875 0.5 0
0.1875 0.53125 0
0.21875 0.53125 0
0.21875 0.5 0
0.25 0.5 0
0.21875 0.53125 0
0.25 0.53125 0
0.1875 0.53125 0
0.21875 0.53125 0
0.1875 0.5625 0
0.21875 0.5625 0
0.21875 0.53125 0
0.25 0.53125 0
0.21875 0.5625 0
0.25 0.5625 0
0.125 0.5625 0
0.15625 0.5625 0
0.125 0.59375 0
0.15625 0.59375 0
0.15625 0.5625 0
0.1875 0.5625 0
0.15625 0.59375 0
0.1875 0.59375 0
0.125 0.59375 0
0.15625 0.59375 0
0.125 0.625 0
0.15625 0.625 0
0.15625 0.59375 0
0.1875 0.59375 0
0.15625 0.625 0
0.1875 0.625 0
0.1875 0.5625 0
0.21875 0.5625 0
0.1875 0.59375 0
0.21875 0.59375 0
0.21875 0.5625 0
0.25 0.5625 0
0.21875 0.59375 0
0.25 0.59375 0
0.1875 0.59375 0
0.21875 0.59375 0
0.1875 0.625 0
0.21875 0.625 0
0.21875 0.59375 0
0.25 0.59375 0
0.21875 0.625 0
0.25 0.625 0
0 0.625 0
0.03125 0.625 0
0 0.65625 0
0.03125 0.65625 0
0.03125 0.625 0
0.0625 0.625 0
0.03125 0.65625 0
0.0625 0.65625 0
0 0.65625 0
0.03125 0.65625 0
0 0.6875 0
0.03125 0.6875 0
0.03125 0.65625 0
0.0625 0.65625 0
0.03125 0.6875 0
0.0625 0.6875 0
0.0625 0.625 0
0.09375 0.625 0
0.0625 0.65625 0
0.09375 0.65625 0
0.09375 0.625 0
0.125 0.625 0
0.09375 0.65625 0
0.125 0.65625 0
0.0625 0.65625 0
0.09375 0.65625 0
0.0625 0.6875 0
0.09375 0.6875 0
0.09375 0.65625 0
0.125 0.65625 0
0.09375 0.6875 0
0.125 0.6875 0
0 0.6875 0
0.03125 0.6875 0
0 0.71875 0
0.03125 0.71875 0
0.03125 0.6875 0
0.0625 0.6875 0
0.03125 0.71875 0
0.0625 0.71875 0
0 0.71875 0
0.03125 0.71875 0
0 0.75 0
0.03125 0.75 0
0.03125 0.71875 0
0.0625 0.71875 0
0.03125 0.75 0
0.0625 0.75 0
0.0625 0.6875 0
0.09375 0.6875 0
0.0625 0.71875 0
0.09375 0.71875 0
0.09375 0.6875 0
0.125 0.6875 0
0.09375 0.71875 0
0.125 0.71875 0
0.0625 0.71875 0
0.09375 0.71875 0
0.0625 0.75 0
0.09375 0.75 0
0.09375 0.71875 0
0.125 0.71875 0
0.09375 0.75 0
0.125 0.75 0
0.125 0.625 0
0.15625 0.625 0
0.125 0.65625 0
0.15625 0.65625 0
0.15625 0.625 0
0.1875 0.625 0
0.15625 0.65625 0
0.1875 0.65625 0
0.125 0.65625 0
0.15625 0.65625 0
0.125 0.6875 0
0.15625 0.6875 0
0.15625 0.65625 0
0.1875 0.65625 0
0.15625 0.6875 0
0.1875 0.6875 0
0.1875 0.625 0
0.21875 0.625 0
0.1875 0.65625 0
0.21875 0.65625 0
0.21875 0.625 0
0.25 0.625 0
0.21875 0.65625 0
0.25 0.65625 0
0.1875 0.65625 0
0.21875 0.65625 0
0.1875 0.6875 0
0.21875 0.6875 0
0.21875 0.65625 0
0.25 0.65625 0
0.21875 0.6875 0
0.25 0.6875 0
0.125 0.6875 0
0.15625 0.6875 0
0.125 0.71875 0
0.15625 0.71875 0
0.15625 0.6875 0
0.1875 0.6875 0
0.15625 0.71875 0
0.1875 0.71875 0
0.125 0.71875 0
0.15625 0.71875 0
0.125 0.75 0
0.15625 0.75 0
0.15625 0.71875 0
0.1875 0.71875 0
0.15625 0.75 0
0.1875 0.75 0
0.1875 0.6875 0
0.21875 0.6875 0
0.1875 0.71875 0
0.21875 0.71875 0
0.21875 0.6875 0
0.25 0.6875 0
0.21875 0.71875 0
0.25 0.71875 0
0.1875 0.71875 0
0.21875 0.71875 0
0.1875 0.75 0
0.21875 0.75 0
0.21875 0.71875 0
0.25 0.71875 0
0.21875 0.75 0
0.25 0.75 0
0.25 0.5 0
0.28125 0.5 0
0.25 0.53125 0
0.28125 0.53125 0
0.28125 0.5 0
0.3125 0.5 0
0.28125 0.53125 0
0.3125 0.53125 0
0.25 0.53125 0
0.28125 0.53125 0
0.25 0.5625 0
0.28125 0.5625 0
0.28125 0.53125 0
0.3125 0.53125 0
0.28125 0.5625 0
0.3125 0.5625 0
0.3125 0.5 0
0.34375 0.5 0
0.3125 0.53125 0
0.34375 0.53125 0
0.34375 0.5 0
0.375 0.5 0
0.34375 0.53125 0
0.375 0.53125 0
0.3125 0.53125 0
0.34375 0.53125 0
0.3125 0.5625 0
0.34375 0.5625 0
0.34375 0.53125 0
0.375 0.53125 0
0.34375 0.5625 0
0.375 0.5625 0
0.25 0.5625 0
0.28125 0.5625 0
0.25 0.59375 0
0.28125 0.59375 0
0.28125 0.5625 0
0.3125 0.5625 0
0.28125 0.59375 0
0.3125 0.59375 0
0.25 0.59375 0
0.28125 0.59375 0
0.25 0.625 0
0.28125 0.625 0
0.28125 0.59375 0
0.3125 0.59375 0
0.28125 0.625 0
0.3125 0.625 0
0.3125 0.5625 0
0.34375 0.5625 0
0.3125 0.59375 0
0.34375 0.59375 0
0.34375 0.5625 0
0.375 0.5625 0
0.34375 0.59375 0
0.375 0.59375 0
0.3125 0.59375 0
0.34375 0.59375 0
0.3125 0.625 0
0.34375 0.625 0
0.34375 0.59375 0
0.375 0.59375 0
0.34375 0.625 0
0.375 0.625 0
0.375 0.5 0
0.40625 0.5 0
0.375 0.53125 0
0.40625 0.53125 0
0.40625 0.5 0
0.4375 0.5 0
0.40625 0.53125 0
0.4375 0.53125 0
0.375 0.53125 0
0.40625 0.53125 0
0.375 0.5625 0
0.40625 0.5625 0
0.40625 0.53125 0
0.4375 0.53125 0
0.40625 0.5625 0
0.4375 0.5625 0
0.4375 0.5 0
0.46875 0.5 0
0.4375 0.53125 0
0.46875 0.53125 0
0.46875 0.5 0
0.5 0.5 0
0.46875 0.53125 0
0.5 0.53125 0
0.4375 0.53125 0
0.46875 0.53125 0
0.4375 0.5625 0
0.46875 0.5625 0
0.46875 0.53125 0
0.5 0.53125 0
0.46875 0.5625 0
0.5 0.5625 0
0.375 0.5625 0
0.40625 0.5625 0
0.375 0.59375 0
0.40625 0.59375 0
0.40625 0.5625 0
0.4375 0.5625 0
0.40625 0.59375 0
0.4375 0.59375 0
0.375 0.59375 0
0.40625 0.59375 0
0.375 0.625 0
0.40625 0.625 0
0.40625 0.59375 0
0.4375 0.59375 0
0.40625 0.625 0
0.4375 0.625 0
0.4375 0.5625 0
0.46875 0.5625 0
0.4375 0.59375 0
0.46875 0.59375 0
0.46875 0.5625 0
0.5 0.5625 0
0.46875 0.59375 0
0.5 0.59375 0
0.4375 0.59375 0
0.46875 0.59375 0
0.4375 0.625 0
0.46875 0.625 0
0.46875 0.59375 0
0.5 0.59375 0
0.46875 0.625 0
0.5 0.625 0
0.25 0.625 0
0.28125 0.625 0
0.25 0.65625 0
0.28125 0.65625 0
0.28125 0.625 0
0.3125 0.625 0
0.28125 0.65625 0
0.3125 0.65625 0
0.25 0.65625 0
0.28125 0.65625 0
0.25 0.6875 0
0.28125 0.6875 0
0.28125 0.65625 0
0.3125 0.65625 0
0.28125 0.6875 0
0.3125 0.6875 0
0.3125 0.625 0
0.34375 0.625 0
0.3125 0.65625 0
0.34375 0.65625 0
0.34375 0.625 0
0.375 0.625 0
0.34375 0.65625 0
0.375 0.65625 0
0.3125 0.65625 0
0.34375 0.65625 0
0.3125 0.6875 0
0.34375 0.6875 0
0.34375 0.65625 0
0.375 0.65625 0
0.34375 0.6875 0
0.375 0.6875 0
0.25 0.6875 0
0.28125 0.6875 0
0.25 0.71875 0
0.28125 0.71875 0
0.28125 0.6875 0
0.3125 0.6875 0
0.28125 0.71875 0
0.3125 0.71875 0
0.25 0.71875 0
0.28125 0.71875 0
0.25 0.75 0
0.28125 0.75 0
0.28125 0.71875 0
0.3125 0.71875 0
0.28125 0.75 0
0.3125 0.75 0
0.3125 0.6875 0
0.34375 0.6875 0
0.3125 0.71875 0
0.34375 0.71875 0
0.34375 0.6875 0
0.375 0.6875 0
0.34375 0.71875 0
0.375 0.71875 0
0.3125 0.71875 0
0.34375 0.71875 0
0.3125 0.75 0
0.34375 0.75 0
0.34375 0.71875 0
0.375 0.71875 0
0.34375 0.75 0
0.375 0.75 0
0.375 0.625 0
0.40625 0.625 0
0.375 0.65625 0
0.40625 0.65625 0
0.40625 0.625 0
0.4375 0.625 0
0.40625 0.65625 0
0.4375 0.65625 0
0.375 0.65625 0
0.40625 0.65625 0
0.375 0.6875 0
0.40625 0.6875 0
0.40625 0.65625 0
0.4375 0.65625 0
0.40625 0.6875 0
0.4375 0.6875 0
0.4375 0.625 0
0.46875 0.625 0
0.4375 0.65625 0
0.46875 0.65625 0
0.46875 0.625 0
0.5 0.625 0
0.46875 0.65625 0
0.5 0.65625 0
0.4375 0.65625 0
0.46875 0.65625 0
0.4375 0.6875 0
0.46875 0.6875 0
0.46875 0.65625 0
0.5 0.65625 0
0.46875 0.6875 0
0.5 0.6875 0
0.375 0.6875 0
0.40625 0.6875 0
0.375 0.71875 0
0.40625 0.71875 0
0.40625 0.6875 0
0.4375 0.6875 0
0.40625 0.71875 0
0.4375 0.71875 0
0.375 0.71875 0
0.40625 0.71875 0
0.375 0.75 0
0.40625 0.75 0
0.40625 0.71875 0
0.4375 0.71875 0
0.40625 0.75 0
0.4375 0.75 0
0.4375 0.6875 0
0.46875 0.6875 0
0.4375 0.71875 0
0.46875 0.71875 0
0.46875 0.6875 0
0.5 0.6875 0
0.46875 0.71875 0
0.5 0.71875 0
0.4375 0.71875 0
0.46875 0.71875 0
0.4375 0.75 0
0.46875 0.75 0
0.46875 0.71875 0
0.5 0.71875 0
0.46875 0.75 0
0.5 0.75 0
0 0.75 0
0.03125 0.75 0
0 0.78125 0
0.03125 0.78125 0
0.03125 0.75 0
0.0625 0.75 0
0.03125 0.78125 0
0.0625 0.78125 0
0 0.78125 0
0.03125 0.78125 0
0 0.8125 0
0.03125 0.8125 0
0.03125 0.78125 0
0.0625 0.78125 0
0.03125 0.8125 0
0.0625 0.8125 0
0.0625 0.75 0
0.09375 0.75 0
0.0625 0.78125 0
0.09375 0.78125 0
0.09375 0.75 0
0.125 0.75 0
0.09375 0.78125 0
0.125 0.78125 0
0.0625 0.78125 0
0.09375 0.78125 0
0.0625 0.8125 0
0.09375 0.8125 0
0.09375 0.78125 0
0.125 0.78125 0
0.09375 0.8125 0
0.125 0.8125 0
0 0.8125 0
0.03125 0.8125 0
0 0.84375 0
0.03125 0.84375 0
0.03125 0.8125 0
0.0625 0.8125 0
0.03125 0.84375 0
0.0625 0.84375 0
0 0.84375 0
0.03125 0.84375 0
0 0.875 0
0.03125 0.875 0
0.03125 0.84375 0
0.0625 0.84375 0
0.03125 0.875 0
0.0625 0.875 0
0.0625 0.8125 0
0.09375 0.8125 0
0.0625 0.84375 0
0.09375 0.84375 0
0.09375 0.8125 0
0.125 0.8125 0
0.09375 0.84375 0
0.125 0.84375 0
0.0625 0.84375 0
0.09375 0.84375 0
0.0625 0.875 0
0.09375 0.875 0
0.09375 0.84375 0
0.125 0.84375 0
0.09375 0.875 0
0.125 0.875 0
0.125 0.75 0
0.15625 0.75 0
0.125 0.78125 0
0.15625 0.78125 0
0.15625 0.75 0
0.1875 0.75 0
0.15625 0.78125 0
0.1875 0.78125 0
0.125 0.78125 0
0.15625 0.78125 0
0.125 0.8125 0
0.15625 0.8125 0
0.15625 0.78125 0
0.1875 0.78125 0
0.15625 0.8125 0
0.1875 0.8125 0
0.1875 0.75 0
0.21875 0.75 0
0.1875 0.78125 0
0.21875 0.78125 0
0.21875 0.75 0
0.25 0.75 0
0.21875 0.78125 0
0.25 0.78125 0
0.1875 0.78125 0
0.21875 0.78125 0
0.1875 0.8125 0
0.21875 0.8125 0
0.21875 0.78125 0
0.25 0.78125 0
0.21875 0.8125 0
0.25 0.8125 0
0.125 0.8125 0
0.15625 0.8125 0
0.125 0.84375 0
0.15625 0.84375 0
0.15625 0.8125 0
[...]
POINT_DATA 4096
SCALARS x_dis double 1
LOOKUP_TABLE default
6.38264e-14 1.23719e-13 -5.4938e-13 -3.77987e-13 1.23719e-13 1.88725e-13 -3.77987e-13 -5.84677e-13 -5.4938e-13 -3.77987e-13 -6.22541e-13 4.3625e-13 -3.77987e-13 -5.84677e-13 4.3625e-13 1.83458e-12 1.88725e-13 2.03753e-13 -5.84677e-13 -6.34599e-13 2.03753e-13 2.15763e-13 -6.34599e-13 -6.64452e-13 -5.84677e-13 -6.34599e-13 1.83458e-12 1.81093e-12 -6.34599e-13 -6.64452e-13 1.81093e-12 1.84187e-12 -6.22541e-13 4.3625e-13 -2.10674e-12 -1.75751e-13 4.3625e-13 1.83458e-12 -1.75751e-13 -4.34716e-12 -2.10674e-12 -1.75751e-13 -2.99205e-11 -1.25051e-11 -1.75751e-13 -4.34716e-12 -1.25051e-11 8.81791e-12 1.83458e-12 1.81093e-12 -4.34716e-12 -4.23714e-12 1.81093e-12 1.84187e-12 -4.23714e-12 -4.05447e-12 -4.34716e-12 -4.23714e-12 8.81791e-12 5.46496e-12 -4.23714e-12 -4.05447e-12 5.46496e-12 4.04067e-12 2.15763e-13 2.02119e-13 -6.64452e-13 -6.238e-13 2.02119e-13 2.05468e-13 -6.238e-13 -6.36567e-13 -6.64452e-13 -6.238e-13 1.84187e-12 1.76251e-12 -6.238e-13 -6.36567e-13 1.76251e-12 1.78412e-12 2.05468e-13 2.05783e-13 -6.36567e-13 -6.36698e-13 2.05783e-13 2.05193e-13 -6.36698e-13 -6.34811e-13 -6.36567e-13 -6.36698e-13 1.78412e-12 1.7862e-12 -6.36698e-13 -6.34811e-13 1.7862e-12 1.78239e-12 1.84187e-12 1.76251e-12 -4.05447e-12 -3.96105e-12 1.76251e-12 1.78412e-12 -3.96105e-12 -4.00961e-12 -4.05447e-12 -3.96105e-12 4.04067e-12 4.3634e-12 -3.96105e-12 -4.00961e-12 4.3634e-12 4.30568e-12 1.78412e-12 1.7862e-12 -4.00961e-12 -4.01124e-12 1.7862e-12 1.78239e-12 -4.01124e-12 -4.00259e-12 -4.00961e-12 -4.01124e-12 4.30568e-12 4.29259e-12 -4.01124e-12 -4.00259e-12 4.29259e-12 4.30425e-12 -2.99205e-11 -1.25051e-11 3.78795e-11 6.27169e-11 -1.25051e-11 8.81791e-12 6.27169e-11 6.96123e-12 3.78795e-11 6.27169e-11 -6.01452e-10 -3.91387e-10 6.27169e-11 6.96123e-12 -3.91387e-10 -1.48269e-10 8.81791e-12 5.46496e-12 6.96123e-12 1.71383e-11 5.46496e-12 4.04067e-12 1.71383e-11 2.55509e-11 6.96123e-12 1.71383e-11 -1.48269e-10 -1.97242e-10 1.71383e-11 2.55509e-11 -1.97242e-10 -2.35949e-10 -6.01452e-10 -3.91387e-10 1.00928e-09 1.41352e-09 -3.91387e-10 -1.48269e-10 1.41352e-09 9.91175e-10 1.00928e-09 1.41352e-09 -8.35652e-09 -6.6042e-09 1.41352e-09 9.91175e-10 -6.6042e-09 -4.97024e-09 -1.48269e-10 -1.97242e-10 9.91175e-10 1.11195e-09 -1.97242e-10 -2.35949e-10 1.11195e-09 1.22091e-09 9.91175e-10 1.11195e-09 -4.97024e-09 -5.13779e-09 1.11195e-09 1.22091e-09 -5.13779e-09 -5.63934e-09 4.04067e-12 4.3634e-12 2.55509e-11 2.2704e-11 4.3634e-12 4.30568e-12 2.2704e-11 2.3106e-11 2.55509e-11 2.2704e-11 -2.35949e-10 -2.22255e-10 2.2704e-11 2.3106e-11 -2.22255e-10 -2.24803e-10 4.30568e-12 4.29259e-12 2.3106e-11 2.31479e-11 4.29259e-12 4.30425e-12 2.31479e-11 2.31267e-11 2.3106e-11 2.31479e-11 -2.24803e-10 -2.25184e-10 2.31479e-11 2.31267e-11 -2.25184e-10 -2.24881e-10 -2.35949e-10 -2.22255e-10 1.22091e-09 1.18023e-09 -2.22255e-10 -2.24803e-10 1.18023e-09 1.18524e-09 1.22091e-09 1.18023e-09 -5.63934e-09 -5.51644e-09 1.18023e-09 1.18524e-09 -5.51644e-09 -5.5203e-09 -2.24803e-10 -2.25184e-10 1.18524e-09 1.18578e-09 -2.25184e-10 -2.24881e-10 1.18578e-09 1.1857e-09 1.18524e-09 1.18578e-09 -5.5203e-09 -5.52948e-09 1.18578e-09 1.1857e-09 -5.52948e-09 -5.52739e-09 2.05193e-13 2.05448e-13 -6.34811e-13 -6.35776e-13 2.05448e-13 2.05377e-13 -6.35776e-13 -6.35463e-13 -6.34811e-13 -6.35776e-13 1.78239e-12 1.78388e-12 -6.35776e-13 -6.35463e-13 1.78388e-12 1.78353e-12 2.05377e-13 2.0539e-13 -6.35463e-13 -6.35545e-13 2.0539e-13 2.05384e-13 -6.35545e-13 -6.35524e-13 -6.35463e-13 -6.35545e-13 1.78353e-12 1.7836e-12 -6.35545e-13 -6.35524e-13 1.7836e-12 1.78354e-12 1.78239e-12 1.78388e-12 -4.00259e-12 -4.00653e-12 1.78388e-12 1.78353e-12 -4.00653e-12 -4.0055e-12 -4.00259e-12 -4.00653e-12 4.30425e-12 4.29794e-12 -4.00653e-12 -4.0055e-12 4.29794e-12 4.30016e-12 1.78353e-12 1.7836e-12 -4.0055e-12 -4.00571e-12 1.7836e-12 1.78354e-12 -4.00571e-12 -4.00562e-12 -4.0055e-12 -4.00571e-12 4.30016e-12 4.29988e-12 -4.00571e-12 -4.00562e-12 4.29988e-12 4.29962e-12 2.05384e-13 2.05423e-13 -6.35524e-13 -6.35503e-13 2.05423e-13 2.05475e-13 -6.35503e-13 -6.35284e-13 -6.35524e-13 -6.35503e-13 1.78354e-12 1.78369e-12 -6.35503e-13 -6.35284e-13 1.78369e-12 1.78336e-12 2.05475e-13 2.03502e-13 -6.35284e-13 -6.39343e-13 2.03502e-13 1.9052e-13 -6.39343e-13 -6.36639e-13 -6.35284e-13 -6.39343e-13 1.78336e-12 1.78352e-12 -6.39343e-13 -6.36639e-13 1.78352e-12 1.7824e-12 1.78354e-12 1.78369e-12 -4.00562e-12 -4.00572e-12 1.78369e-12 1.78336e-12 -4.00572e-12 -4.0056e-12 -4.00562e-12 -4.00572e-12 4.29962e-12 4.29989e-12 -4.00572e-12 -4.0056e-12 4.29989e-12 4.29971e-12 1.78336e-12 1.78352e-12 -4.0056e-12 -4.00584e-12 1.78352e-12 1.7824e-12 -4.00584e-12 -4.00638e-12 -4.0056e-12 -4.00584e-12 4.29971e-12 4.29978e-12 -4.00584e-12 -4.00638e-12 4.29978e-12 4.29993e-12 4.30425e-12 4.29794e-12 2.31267e-11 2.313e-11 4.29794e-12 4.30016e-12 2.313e-11 2.31294e-11 2.31267e-11 2.313e-11 -2.24881e-10 -2.24973e-10 2.313e-11 2.31294e-11 -2.24973e-10 -2.24962e-10 4.30016e-12 4.29988e-12 2.31294e-11 2.31299e-11 4.29988e-12 4.29962e-12 2.31299e-11 2.31296e-11 2.31294e-11 2.31299e-11 -2.24962e-10 -2.24958e-10 2.31299e-11 2.31296e-11 -2.24958e-10 -2.24961e-10 -2.24881e-10 -2.24973e-10 1.1857e-09 1.18554e-09 -2.24973e-10 -2.24962e-10 1.18554e-09 1.18563e-09 1.1857e-09 1.18554e-09 -5.52739e-09 -5.52691e-09 1.18554e-09 1.18563e-09 -5.52691e-09 -5.52746e-09 -2.24962e-10 -2.24958e-10 1.18563e-09 1.18561e-09 -2.24958e-10 -2.24961e-10 1.18561e-09 1.18561e-09 1.18563e-09 1.18561e-09 -5.52746e-09 -5.52722e-09 1.18561e-09 1.18561e-09 -5.52722e-09 -5.52729e-09 4.29962e-12 4.29989e-12 2.31296e-11 2.31297e-11 4.29989e-12 4.29971e-12 2.31297e-11 2.31297e-11 2.31296e-11 2.31297e-11 -2.24961e-10 -2.2496e-10 2.31297e-11 2.31297e-11 -2.2496e-10 -2.2496e-10 4.29971e-12 4.29978e-12 2.31297e-11 2.31297e-11 4.29978e-12 4.29993e-12 2.31297e-11 2.31297e-11 2.31297e-11 2.31297e-11 -2.2496e-10 -2.2496e-10 2.31297e-11 2.31297e-11 -2.2496e-10 -2.2496e-10 -2.24961e-10 -2.2496e-10 1.18561e-09 1.18561e-09 -2.2496e-10 -2.2496e-10 1.18561e-09 1.18561e-09 1.18561e-09 1.18561e-09 -5.52729e-09 -5.52728e-09 1.18561e-09 1.18561e-09 -5.52728e-09 -5.52728e-09 -2.2496e-10 -2.2496e-10 1.18561e-09 1.18561e-09 -2.2496e-10 -2.2496e-10 1.18561e-09 1.18561e-09 1.18561e-09 1.18561e-09 -5.52728e-09 -5.52728e-09 1.18561e-09 1.18561e-09 -5.52728e-09 -5.52728e-09 -8.35652e-09 -6.6042e-09 1.05966e-08 1.75142e-08 -6.6042e-09 -4.97024e-09 1.75142e-08 2.02259e-08 1.05966e-08 1.75142e-08 -7.80508e-08 -6.04279e-08 1.75142e-08 2.02259e-08 -6.04279e-08 -6.82194e-08 -4.97024e-09 -5.13779e-09 2.02259e-08 1.96696e-08 -5.13779e-09 -5.63934e-09 1.96696e-08 2.02947e-08 2.02259e-08 1.96696e-08 -6.82194e-08 -6.47317e-08 1.96696e-08 2.02947e-08 -6.47317e-08 -6.72097e-08 -7.80508e-08 -6.04279e-08 -6.15242e-08 4.04121e-08 -6.04279e-08 -6.82194e-08 4.04121e-08 1.80637e-07 -6.15242e-08 4.04121e-08 -3.03697e-07 1.69407e-07 4.04121e-08 1.80637e-07 1.69407e-07 -1.46694e-07 -6.82194e-08 -6.47317e-08 1.80637e-07 1.69313e-07 -6.47317e-08 -6.72097e-08 1.69313e-07 1.61242e-07 1.80637e-07 1.69313e-07 -1.46694e-07 -2.00077e-07 1.69313e-07 1.61242e-07 -2.00077e-07 -1.87664e-07 -5.63934e-09 -5.51644e-09 2.02947e-08 2.00844e-08 -5.51644e-09 -5.5203e-09 2.00844e-08 2.00874e-08 2.02947e-08 2.00844e-08 -6.72097e-08 -6.71126e-08 2.00844e-08 2.00874e-08 -6.71126e-08 -6.69443e-08 -5.5203e-09 -5.52948e-09 2.00874e-08 2.00827e-08 -5.52948e-09 -5.52739e-09 2.00827e-08 2.00908e-08 2.00874e-08 2.00827e-08 -6.69443e-08 -6.69931e-08 2.00827e-08 2.00908e-08 -6.69931e-08 -6.70088e-08 -6.72097e-08 -6.71126e-08 1.61242e-07 1.61564e-07 -6.71126e-08 -6.69443e-08 1.61564e-07 1.6207e-07 1.61242e-07 1.61564e-07 -1.87664e-07 -1.87095e-07 1.61564e-07 1.6207e-07 -1.87095e-07 -1.87412e-07 -6.69443e-08 -6.69931e-08 1.6207e-07 1.61791e-07 -6.69931e-08 -6.70088e-08 1.61791e-07 1.61866e-07 1.6207e-07 1.61791e-07 -1.87412e-07 -1.87546e-07 1.61791e-07 1.61866e-07 -1.87546e-07 -1.87445e-07 -3.03697e-07 1.69407e-07 -3.54192e-06 -2.80602e-06 1.69407e-07 -1.46694e-07 -2.80602e-06 -1.27953e-06 -3.54192e-06 -2.80602e-06 8.23575e-07 5.91378e-06 -2.80602e-06 -1.27953e-06 5.91378e-06 8.49392e-06 -1.46694e-07 -2.00077e-07 -1.27953e-06 -7.75784e-07 -2.00077e-07 -1.87664e-07 -7.75784e-07 -8.66956e-07 -1.27953e-06 -7.75784e-07 8.49392e-06 8.96865e-06 -7.75784e-07 -8.66956e-07 8.96865e-06 8.54749e-06 8.23575e-07 5.91378e-06 -5.45455e-05 -1.10679e-05 5.91378e-06 8.49392e-06 -1.10679e-05 -8.44706e-06 -5.45455e-05 -1.10679e-05 -0.00016 -0.00016 -1.10679e-05 -8.44706e-06 -0.00016 -0.00016 8.49392e-06 8.96865e-06 -8.44706e-06 -9.53315e-06 8.96865e-06 8.54749e-06 -9.53315e-06 -9.63247e-06 -8.44706e-06 -9.53315e-06 -0.00016 -0.00016 -9.53315e-06 -9.63247e-06 -0.00016 -0.00016 -1.87664e-07 -1.87095e-07 -8.66956e-07 -9.29007e-07 -1.87095e-07 -1.87412e-07 -9.29007e-07 -9.01579e-07 -8.66956e-07 -9.29007e-07 8.54749e-06 8.60014e-06 -9.29007e-07 -9.01579e-07 8.60014e-06 8.615e-06 -1.87412e-07 -1.87546e-07 -9.01579e-07 -9.06316e-07 -1.87546e-07 -1.87445e-07 -9.06316e-07 -9.0692e-07 -9.01579e-07 -9.06316e-07 8.615e-06 8.60387e-06 -9.06316e-07 -9.0692e-07 8.60387e-06 8.60769e-06 8.54749e-06 8.60014e-06 -9.63247e-06 -9.56527e-06 8.60014e-06 8.615e-06 -9.56527e-06 -9.58238e-06 -9.63247e-06 -9.56527e-06 -0.00016 -0.00016 -9.56527e-06 -9.58238e-06 -0.00016 -0.00016 8.615e-06 8.60387e-06 -9.58238e-06 -9.58034e-06 8.60387e-06 8.60769e-06 -9.58034e-06 -9.58004e-06 -9.58238e-06 -9.58034e-06 -0.00016 -0.00016 -9.58034e-06 -9.58004e-06 -0.00016 -0.00016 -5.52739e-09 -5.52691e-09 2.00908e-08 2.00854e-08 -5.52691e-09 -5.52746e-09 2.00854e-08 2.00876e-08 2.00908e-08 2.00854e-08 -6.70088e-08 -6.69915e-08 2.00854e-08 2.00876e-08 -6.69915e-08 -6.69995e-08 -5.52746e-09 -5.52722e-09 2.00876e-08 2.0087e-08 -5.52722e-09 -5.52729e-09 2.0087e-08 2.00871e-08 2.00876e-08 2.0087e-08 -6.69995e-08 -6.6997e-08 2.0087e-08 2.00871e-08 -6.6997e-08 -6.69975e-08 -6.70088e-08 -6.69915e-08 1.61866e-07 1.61856e-07 -6.69915e-08 -6.69995e-08 1.61856e-07 1.61854e-07 1.61866e-07 1.61856e-07 -1.87445e-07 -1.87474e-07 1.61856e-07 1.61854e-07 -1.87474e-07 -1.87472e-07 -6.69995e-08 -6.6997e-08 1.61854e-07 1.61856e-07 -6.6997e-08 -6.69975e-08 1.61856e-07 1.61855e-07 1.61854e-07 1.61856e-07 -1.87472e-07 -1.8747e-07 1.61856e-07 1.61855e-07 -1.8747e-07 -1.87471e-07 -5.52729e-09 -5.52728e-09 2.00871e-08 2.00871e-08 -5.52728e-09 -5.52728e-09 2.00871e-08 2.00871e-08 2.00871e-08 2.00871e-08 -6.69975e-08 -6.69975e-08 2.00871e-08 2.00871e-08 -6.69975e-08 -6.69975e-08 -5.52728e-09 -5.52728e-09 2.00871e-08 2.00871e-08 -5.52728e-09 -5.52728e-09 2.00871e-08 2.00871e-08 2.00871e-08 2.00871e-08 -6.69975e-08 -6.69975e-08 2.00871e-08 2.00871e-08 -6.69975e-08 -6.69975e-08 -6.69975e-08 -6.69975e-08 1.61855e-07 1.61855e-07 -6.69975e-08 -6.69975e-08 1.61855e-07 1.61855e-07 1.61855e-07 1.61855e-07 -1.87471e-07 -1.87471e-07 1.61855e-07 1.61855e-07 -1.87471e-07 -1.87471e-07 -6.69975e-08 -6.69975e-08 1.61855e-07 1.61855e-07 -6.69975e-08 -6.69975e-08 1.61855e-07 1.61855e-07 1.61855e-07 1.61855e-07 -1.87471e-07 -1.87471e-07 1.61855e-07 1.61855e-07 -1.87471e-07 -1.87471e-07 -1.87445e-07 -1.87474e-07 -9.0692e-07 -9.06182e-07 -1.87474e-07 -1.87472e-07 -9.06182e-07 -9.06488e-07 -9.0692e-07 -9.06182e-07 8.60769e-06 8.6068e-06 -9.06182e-07 -9.06488e-07 8.6068e-06 8.60692e-06 -1.87472e-07 -1.8747e-07 -9.06488e-07 -9.06401e-07 -1.8747e-07 -1.87471e-07 -9.06401e-07 -9.06418e-07 -9.06488e-07 -9.06401e-07 8.60692e-06 8.60693e-06 -9.06401e-07 -9.06418e-07 8.60693e-06 8.60692e-06 8.60769e-06 8.6068e-06 -9.58004e-06 -9.5803e-06 8.6068e-06 8.60692e-06 -9.5803e-06 -9.58021e-06 -9.58004e-06 -9.5803e-06 -0.00016 -0.00016 -9.5803e-06 -9.58021e-06 -0.00016 -0.00016 8.60692e-06 8.60693e-06 -9.58021e-06 -9.58023e-06 8.60693e-06 8.60692e-06 -9.58023e-06 -9.58023e-06 -9.58021e-06 -9.58023e-06 -0.00016 -0.00016 -9.58023e-06 -9.58023e-06 -0.00016 -0.00016 -1.87471e-07 -1.87471e-07 -9.06418e-07 -9.06417e-07 -1.87471e-07 -1.87471e-07 -9.06417e-07 -9.06416e-07 -9.06418e-07 -9.06417e-07 8.60692e-06 8.60692e-06 -9.06417e-07 -9.06416e-07 8.60692e-06 8.60692e-06 -1.87471e-07 -1.87471e-07 -9.06416e-07 -9.06417e-07 -1.87471e-07 -1.87471e-07 -9.06417e-07 -9.06416e-07 -9.06416e-07 -9.06417e-07 8.60692e-06 8.60692e-06 -9.06417e-07 -9.06416e-07 8.60692e-06 8.60692e-06 8.60692e-06 8.60692e-06 -9.58023e-06 -9.58023e-06 8.60692e-06 8.60692e-06 -9.58023e-06 -9.58023e-06 -9.58023e-06 -9.58023e-06 -0.00016 -0.00016 -9.58023e-06 -9.58023e-06 -0.00016 -0.00016 8.60692e-06 8.60692e-06 -9.58023e-06 -9.58023e-06 8.60692e-06 8.60692e-06 -9.58023e-06 -9.58023e-06 -9.58023e-06 -9.58023e-06 -0.00016 -0.00016 -9.58023e-06 -9.58023e-06 -0.00016 -0.00016 1.9052e-13 4.80136e-13 -6.36639e-13 -7.06036e-13 4.80136e-13 3.95853e-13 -7.06036e-13 -6.94139e-13 -6.36639e-13 -7.06036e-13 1.7824e-12 1.80144e-12 -7.06036e-13 -6.94139e-13 1.80144e-12 1.80067e-12 3.95853e-13 4.10599e-13 -6.94139e-13 -6.93849e-13 4.10599e-13 4.07816e-13 -6.93849e-13 -6.9469e-13 -6.94139e-13 -6.93849e-13 1.80067e-12 1.80062e-12 -6.93849e-13 -6.9469e-13 1.80062e-12 1.80067e-12 1.7824e-12 1.80144e-12 -4.00638e-12 -4.01106e-12 1.80144e-12 1.80067e-12 -4.01106e-12 -4.01061e-12 -4.00638e-12 -4.01106e-12 4.29993e-12 4.30115e-12 -4.01106e-12 -4.01061e-12 4.30115e-12 4.30113e-12 1.80067e-12 1.80062e-12 -4.01061e-12 -4.01028e-12 1.80062e-12 1.80067e-12 -4.01028e-12 -4.01046e-12 -4.01061e-12 -4.01028e-12 4.30113e-12 4.30098e-12 -4.01028e-12 -4.01046e-12 4.30098e-12 4.30113e-12 4.07816e-13 4.07926e-13 -6.9469e-13 -6.94375e-13 4.07926e-13 4.0804e-13 -6.94375e-13 -6.94438e-13 -6.9469e-13 -6.94375e-13 1.80067e-12 1.80061e-12 -6.94375e-13 -6.94438e-13 1.80061e-12 1.80054e-12 4.0804e-13 4.08064e-13 -6.94438e-13 -6.94522e-13 4.08064e-13 4.07791e-13 -6.94522e-13 -6.94226e-13 -6.94438e-13 -6.94522e-13 1.80054e-12 1.80088e-12 -6.94522e-13 -6.94226e-13 1.80088e-12 1.79995e-12 1.80067e-12 1.80061e-12 -4.01046e-12 -4.01043e-12 1.80061e-12 1.80054e-12 -4.01043e-12 -4.01022e-12 -4.01046e-12 -4.01043e-12 4.30113e-12 4.30109e-12 -4.01043e-12 -4.01022e-12 4.30109e-12 4.30054e-12 1.80054e-12 1.80088e-12 -4.01022e-12 -4.01104e-12 1.80088e-12 1.79995e-12 -4.01104e-12 -4.00915e-12 -4.01022e-12 -4.01104e-12 4.30054e-12 4.3029e-12 -4.01104e-12 -4.00915e-12 4.3029e-12 4.29738e-12 4.29993e-12 4.30115e-12 2.31297e-11 2.31294e-11 4.30115e-12 4.30113e-12 2.31294e-11 2.31293e-11 2.31297e-11 2.31294e-11 -2.2496e-10 -2.2496e-10 2.31294e-11 2.31293e-11 -2.2496e-10 -2.2496e-10 4.30113e-12 4.30098e-12 2.31293e-11 2.31296e-11 4.30098e-12 4.30113e-12 2.31296e-11 2.31291e-11 2.31293e-11 2.31296e-11 -2.2496e-10 -2.2496e-10 2.31296e-11 2.31291e-11 -2.2496e-10 -2.2496e-10 -2.2496e-10 -2.2496e-10 1.18561e-09 1.18561e-09 -2.2496e-10 -2.2496e-10 1.18561e-09 1.18561e-09 1.18561e-09 1.18561e-09 -5.52728e-09 -5.52728e-09 1.18561e-09 1.18561e-09 -5.52728e-09 -5.52728e-09 -2.2496e-10 -2.2496e-10 1.18561e-09 1.18561e-09 -2.2496e-10 -2.2496e-10 1.18561e-09 1.18561e-09 1.18561e-09 1.18561e-09 -5.52728e-09 -5.52728e-09 1.18561e-09 1.18561e-09 -5.52728e-09 -5.52728e-09 4.30113e-12 4.30109e-12 2.31291e-11 2.31291e-11 4.30109e-12 4.30054e-12 2.31291e-11 2.31321e-11 2.31291e-11 2.31291e-11 -2.2496e-10 -2.24959e-10 2.31291e-11 2.31321e-11 -2.24959e-10 -2.24966e-10 4.30054e-12 4.3029e-12 2.31321e-11 2.31206e-11 4.3029e-12 4.29738e-12 2.31206e-11 2.31489e-11 2.31321e-11 2.31206e-11 -2.24966e-10 -2.24941e-10 2.31206e-11 2.31489e-11 -2.24941e-10 -2.2501e-10 -2.2496e-10 -2.24959e-10 1.18561e-09 1.18561e-09 -2.24959e-10 -2.24966e-10 1.18561e-09 1.18562e-09 1.18561e-09 1.18561e-09 -5.52728e-09 -5.52728e-09 1.18561e-09 1.18562e-09 -5.52728e-09 -5.52724e-09 -2.24966e-10 -2.24941e-10 1.18562e-09 1.18556e-09 -2.24941e-10 -2.2501e-10 1.18556e-09 1.18577e-09 1.18562e-09 1.18556e-09 -5.52724e-09 -5.52738e-09 1.18556e-09 1.18577e-09 -5.52738e-09 -5.5272e-09 4.07791e-13 4.08359e-13 -6.94226e-13 -6.9472e-13 4.08359e-13 4.08171e-13 -6.9472e-13 -6.94862e-13 -6.94226e-13 -6.9472e-13 1.79995e-12 1.80158e-12 -6.9472e-13 -6.94862e-13 1.80158e-12 1.80003e-12 4.08171e-13 4.05493e-13 -6.94862e-13 -6.92267e-13 4.05493e-13 4.12557e-13 -6.92267e-13 -6.95045e-13 -6.94862e-13 -6.92267e-13 1.80003e-12 1.80328e-12 -6.92267e-13 -6.95045e-13 1.80328e-12 1.77874e-12 1.79995e-12 1.80158e-12 -4.00915e-12 -4.01213e-12 1.80158e-12 1.80003e-12 -4.01213e-12 -4.00391e-12 -4.00915e-12 -4.01213e-12 4.29738e-12 4.3072e-12 -4.01213e-12 -4.00391e-12 4.3072e-12 4.26677e-12 1.80003e-12 1.80328e-12 -4.00391e-12 -4.067e-12 1.80328e-12 1.77874e-12 -4.067e-12 -3.80059e-12 -4.00391e-12 -4.067e-12 4.26677e-12 4.53238e-12 -4.067e-12 -3.80059e-12 4.53238e-12 3.51086e-12 4.12557e-13 4.0851e-13 -6.95045e-13 -7.05542e-13 4.0851e-13 4.2155e-13 -7.05542e-13 -8.25189e-13 -6.95045e-13 -7.05542e-13 1.77874e-12 1.80489e-12 -7.05542e-13 -8.25189e-13 1.80489e-12 2.2518e-12 4.2155e-13 2.55106e-13 -8.25189e-13 -3.2172e-13 2.55106e-13 3.35776e-13 -3.2172e-13 8.46073e-14 -8.25189e-13 -3.2172e-13 2.2518e-12 6.41802e-13 -3.2172e-13 8.46073e-14 6.41802e-13 7.19263e-13 1.77874e-12 1.80489e-12 -3.80059e-12 -4.29098e-12 1.80489e-12 2.2518e-12 -4.29098e-12 -6.36512e-12 -3.80059e-12 -4.29098e-12 3.51086e-12 4.81146e-12 -4.29098e-12 -6.36512e-12 4.81146e-12 1.0634e-11 2.2518e-12 6.41802e-13 -6.36512e-12 1.3139e-12 6.41802e-13 7.19263e-13 1.3139e-12 7.47599e-12 -6.36512e-12 1.3139e-12 1.0634e-11 -1.09157e-11 1.3139e-12 7.47599e-12 -1.09157e-11 -8.17361e-12 4.29738e-12 4.3072e-12 2.31489e-11 2.30868e-11 4.3072e-12 4.26677e-12 2.30868e-11 2.33133e-11 2.31489e-11 2.30868e-11 -2.2501e-10 -2.24814e-10 2.30868e-11 2.33133e-11 -2.24814e-10 -2.25555e-10 4.26677e-12 4.53238e-12 2.33133e-11 2.21501e-11 4.53238e-12 3.51086e-12 2.21501e-11 2.63466e-11 2.33133e-11 2.21501e-11 -2.25555e-10 -2.22585e-10 2.21501e-11 2.63466e-11 -2.22585e-10 -2.31788e-10 -2.2501e-10 -2.24814e-10 1.18577e-09 1.18514e-09 -2.24814e-10 -2.25555e-10 1.18514e-09 1.18714e-09 1.18577e-09 1.18514e-09 -5.5272e-09 -5.52649e-09 1.18514e-09 1.18714e-09 -5.52649e-09 -5.53127e-09 -2.25555e-10 -2.22585e-10 1.18714e-09 1.17947e-09 -2.22585e-10 -2.31788e-10 1.17947e-09 1.20654e-09 1.18714e-09 1.17947e-09 -5.53127e-09 -5.52038e-09 1.17947e-09 1.20654e-09 -5.52038e-09 -5.51686e-09 3.51086e-12 4.81146e-12 2.63466e-11 1.84937e-11 4.81146e-12 1.0634e-11 1.84937e-11 5.22347e-13 2.63466e-11 1.84937e-11 -2.31788e-10 -2.21206e-10 1.84937e-11 5.22347e-13 -2.21206e-10 -1.88664e-10 1.0634e-11 -1.09157e-11 5.22347e-13 8.16883e-11 -1.09157e-11 -8.17361e-12 8.16883e-11 1.51064e-10 5.22347e-13 8.16883e-11 -1.88664e-10 -3.2642e-10 8.16883e-11 1.51064e-10 -3.2642e-10 -2.34312e-10 -2.31788e-10 -2.21206e-10 1.20654e-09 1.13262e-09 -2.21206e-10 -1.88664e-10 1.13262e-09 1.13464e-09 1.20654e-09 1.13262e-09 -5.51686e-09 -5.58961e-09 1.13262e-09 1.13464e-09 -5.58961e-09 -5.81003e-09 -1.88664e-10 -3.2642e-10 1.13464e-09 1.50658e-09 -3.2642e-10 -2.34312e-10 1.50658e-09 2.11867e-09 1.13464e-09 1.50658e-09 -5.81003e-09 -4.37978e-09 1.50658e-09 2.11867e-09 -4.37978e-09 -2.67585e-09 -5.52728e-09 -5.52728e-09 2.00871e-08 2.00871e-08 -5.52728e-09 -5.52728e-09 2.00871e-08 2.00871e-08 2.00871e-08 2.00871e-08 -6.69975e-08 -6.69975e-08 2.00871e-08 2.00871e-08 -6.69975e-08 -6.69975e-08 -5.52728e-09 -5.52728e-09 2.00871e-08 2.00871e-08 -5.52728e-09 -5.52728e-09 2.00871e-08 2.00871e-08 2.00871e-08 2.00871e-08 -6.69975e-08 -6.69975e-08 2.00871e-08 2.00871e-08 -6.69975e-08 -6.69974e-08 -6.69975e-08 -6.69975e-08 1.61855e-07 1.61855e-07 -6.69975e-08 -6.69975e-08 1.61855e-07 1.61855e-07 1.61855e-07 1.61855e-07 -1.87471e-07 -1.87471e-07 1.61855e-07 1.61855e-07 -1.87471e-07 -1.87471e-07 -6.69975e-08 -6.69975e-08 1.61855e-07 1.61855e-07 -6.69975e-08 -6.69974e-08 1.61855e-07 1.61855e-07 1.61855e-07 1.61855e-07 -1.87471e-07 -1.87471e-07 1.61855e-07 1.61855e-07 -1.87471e-07 -1.8747e-07 -5.52728e-09 -5.52728e-09 2.00871e-08 2.00872e-08 -5.52728e-09 -5.52724e-09 2.00872e-08 2.00869e-08 2.00871e-08 2.00872e-08 -6.69974e-08 -6.69979e-08 2.00872e-08 2.00869e-08 -6.69979e-08 -6.69959e-08 -5.52724e-09 -5.52738e-09 2.00869e-08 2.00871e-08 -5.52738e