# vtk DataFile Version 3.0
#This file was generated by the deal.II library on 2022/11/2 at 18:39:12
ASCII
DATASET UNSTRUCTURED_GRID

POINTS 4096 double
0 0.5 0
0.03125 0.5 0
0 0.53125 0
0.03125 0.53125 0
0.03125 0.5 0
0.0625 0.5 0
0.03125 0.53125 0
0.0625 0.53125 0
0 0.53125 0
0.03125 0.53125 0
0 0.5625 0
0.03125 0.5625 0
0.03125 0.53125 0
0.0625 0.53125 0
0.03125 0.5625 0
0.0625 0.5625 0
0.0625 0.5 0
0.09375 0.5 0
0.0625 0.53125 0
0.09375 0.53125 0
0.09375 0.5 0
0.125 0.5 0
0.09375 0.53125 0
0.125 0.53125 0
0.0625 0.53125 0
0.09375 0.53125 0
0.0625 0.5625 0
0.09375 0.5625 0
0.09375 0.53125 0
0.125 0.53125 0
0.09375 0.5625 0
0.125 0.5625 0
0 0.5625 0
0.03125 0.5625 0
0 0.59375 0
0.03125 0.59375 0
0.03125 0.5625 0
0.0625 0.5625 0
0.03125 0.59375 0
0.0625 0.59375 0
0 0.59375 0
0.03125 0.59375 0
0 0.625 0
0.03125 0.625 0
0.03125 0.59375 0
0.0625 0.59375 0
0.03125 0.625 0
0.0625 0.625 0
0.0625 0.5625 0
0.09375 0.5625 0
0.0625 0.59375 0
0.09375 0.59375 0
0.09375 0.5625 0
0.125 0.5625 0
0.09375 0.59375 0
0.125 0.59375 0
0.0625 0.59375 0
0.09375 0.59375 0
0.0625 0.625 0
0.09375 0.625 0
0.09375 0.59375 0
0.125 0.59375 0
0.09375 0.625 0
0.125 0.625 0
0.125 0.5 0
0.15625 0.5 0
0.125 0.53125 0
0.15625 0.53125 0
0.15625 0.5 0
0.1875 0.5 0
0.15625 0.53125 0
0.1875 0.53125 0
0.125 0.53125 0
0.15625 0.53125 0
0.125 0.5625 0
0.15625 0.5625 0
0.15625 0.53125 0
0.1875 0.53125 0
0.15625 0.5625 0
0.1875 0.5625 0
0.1875 0.5 0
0.21875 0.5 0
0.1875 0.53125 0
0.21875 0.53125 0
0.21875 0.5 0
0.25 0.5 0
0.21875 0.53125 0
0.25 0.53125 0
0.1875 0.53125 0
0.21875 0.53125 0
0.1875 0.5625 0
0.21875 0.5625 0
0.21875 0.53125 0
0.25 0.53125 0
0.21875 0.5625 0
0.25 0.5625 0
0.125 0.5625 0
0.15625 0.5625 0
0.125 0.59375 0
0.15625 0.59375 0
0.15625 0.5625 0
0.1875 0.5625 0
0.15625 0.59375 0
0.1875 0.59375 0
0.125 0.59375 0
0.15625 0.59375 0
0.125 0.625 0
0.15625 0.625 0
0.15625 0.59375 0
0.1875 0.59375 0
0.15625 0.625 0
0.1875 0.625 0
0.1875 0.5625 0
0.21875 0.5625 0
0.1875 0.59375 0
0.21875 0.59375 0
0.21875 0.5625 0
0.25 0.5625 0
0.21875 0.59375 0
0.25 0.59375 0
0.1875 0.59375 0
0.21875 0.59375 0
0.1875 0.625 0
0.21875 0.625 0
0.21875 0.59375 0
0.25 0.59375 0
0.21875 0.625 0
0.25 0.625 0
0 0.625 0
0.03125 0.625 0
0 0.65625 0
0.03125 0.65625 0
0.03125 0.625 0
0.0625 0.625 0
0.03125 0.65625 0
0.0625 0.65625 0
0 0.65625 0
0.03125 0.65625 0
0 0.6875 0
0.03125 0.6875 0
0.03125 0.65625 0
0.0625 0.65625 0
0.03125 0.6875 0
0.0625 0.6875 0
0.0625 0.625 0
0.09375 0.625 0
0.0625 0.65625 0
0.09375 0.65625 0
0.09375 0.625 0
0.125 0.625 0
0.09375 0.65625 0
0.125 0.65625 0
0.0625 0.65625 0
0.09375 0.65625 0
0.0625 0.6875 0
0.09375 0.6875 0
0.09375 0.65625 0
0.125 0.65625 0
0.09375 0.6875 0
0.125 0.6875 0
0 0.6875 0
0.03125 0.6875 0
0 0.71875 0
0.03125 0.71875 0
0.03125 0.6875 0
0.0625 0.6875 0
0.03125 0.71875 0
0.0625 0.71875 0
0 0.71875 0
0.03125 0.71875 0
0 0.75 0
0.03125 0.75 0
0.03125 0.71875 0
0.0625 0.71875 0
0.03125 0.75 0
0.0625 0.75 0
0.0625 0.6875 0
0.09375 0.6875 0
0.0625 0.71875 0
0.09375 0.71875 0
0.09375 0.6875 0
0.125 0.6875 0
0.09375 0.71875 0
0.125 0.71875 0
0.0625 0.71875 0
0.09375 0.71875 0
0.0625 0.75 0
0.09375 0.75 0
0.09375 0.71875 0
0.125 0.71875 0
0.09375 0.75 0
0.125 0.75 0
0.125 0.625 0
0.15625 0.625 0
0.125 0.65625 0
0.15625 0.65625 0
0.15625 0.625 0
0.1875 0.625 0
0.15625 0.65625 0
0.1875 0.65625 0
0.125 0.65625 0
0.15625 0.65625 0
0.125 0.6875 0
0.15625 0.6875 0
0.15625 0.65625 0
0.1875 0.65625 0
0.15625 0.6875 0
0.1875 0.6875 0
0.1875 0.625 0
0.21875 0.625 0
0.1875 0.65625 0
0.21875 0.65625 0
0.21875 0.625 0
0.25 0.625 0
0.21875 0.65625 0
0.25 0.65625 0
0.1875 0.65625 0
0.21875 0.65625 0
0.1875 0.6875 0
0.21875 0.6875 0
0.21875 0.65625 0
0.25 0.65625 0
0.21875 0.6875 0
0.25 0.6875 0
0.125 0.6875 0
0.15625 0.6875 0
0.125 0.71875 0
0.15625 0.71875 0
0.15625 0.6875 0
0.1875 0.6875 0
0.15625 0.71875 0
0.1875 0.71875 0
0.125 0.71875 0
0.15625 0.71875 0
0.125 0.75 0
0.15625 0.75 0
0.15625 0.71875 0
0.1875 0.71875 0
0.15625 0.75 0
0.1875 0.75 0
0.1875 0.6875 0
0.21875 0.6875 0
0.1875 0.71875 0
0.21875 0.71875 0
0.21875 0.6875 0
0.25 0.6875 0
0.21875 0.71875 0
0.25 0.71875 0
0.1875 0.71875 0
0.21875 0.71875 0
0.1875 0.75 0
0.21875 0.75 0
0.21875 0.71875 0
0.25 0.71875 0
0.21875 0.75 0
0.25 0.75 0
0.25 0.5 0
0.28125 0.5 0
0.25 0.53125 0
0.28125 0.53125 0
0.28125 0.5 0
0.3125 0.5 0
0.28125 0.53125 0
0.3125 0.53125 0
0.25 0.53125 0
0.28125 0.53125 0
0.25 0.5625 0
0.28125 0.5625 0
0.28125 0.53125 0
0.3125 0.53125 0
0.28125 0.5625 0
0.3125 0.5625 0
0.3125 0.5 0
0.34375 0.5 0
0.3125 0.53125 0
0.34375 0.53125 0
0.34375 0.5 0
0.375 0.5 0
0.34375 0.53125 0
0.375 0.53125 0
0.3125 0.53125 0
0.34375 0.53125 0
0.3125 0.5625 0
0.34375 0.5625 0
0.34375 0.53125 0
0.375 0.53125 0
0.34375 0.5625 0
0.375 0.5625 0
0.25 0.5625 0
0.28125 0.5625 0
0.25 0.59375 0
0.28125 0.59375 0
0.28125 0.5625 0
0.3125 0.5625 0
0.28125 0.59375 0
0.3125 0.59375 0
0.25 0.59375 0
0.28125 0.59375 0
0.25 0.625 0
0.28125 0.625 0
0.28125 0.59375 0
0.3125 0.59375 0
0.28125 0.625 0
0.3125 0.625 0
0.3125 0.5625 0
0.34375 0.5625 0
0.3125 0.59375 0
0.34375 0.59375 0
0.34375 0.5625 0
0.375 0.5625 0
0.34375 0.59375 0
0.375 0.59375 0
0.3125 0.59375 0
0.34375 0.59375 0
0.3125 0.625 0
0.34375 0.625 0
0.34375 0.59375 0
0.375 0.59375 0
0.34375 0.625 0
0.375 0.625 0
0.375 0.5 0
0.40625 0.5 0
0.375 0.53125 0
0.40625 0.53125 0
0.40625 0.5 0
0.4375 0.5 0
0.40625 0.53125 0
0.4375 0.53125 0
0.375 0.53125 0
0.40625 0.53125 0
0.375 0.5625 0
0.40625 0.5625 0
0.40625 0.53125 0
0.4375 0.53125 0
0.40625 0.5625 0
0.4375 0.5625 0
0.4375 0.5 0
0.46875 0.5 0
0.4375 0.53125 0
0.46875 0.53125 0
0.46875 0.5 0
0.5 0.5 0
0.46875 0.53125 0
0.5 0.53125 0
0.4375 0.53125 0
0.46875 0.53125 0
0.4375 0.5625 0
0.46875 0.5625 0
0.46875 0.53125 0
0.5 0.53125 0
0.46875 0.5625 0
0.5 0.5625 0
0.375 0.5625 0
0.40625 0.5625 0
0.375 0.59375 0
0.40625 0.59375 0
0.40625 0.5625 0
0.4375 0.5625 0
0.40625 0.59375 0
0.4375 0.59375 0
0.375 0.59375 0
0.40625 0.59375 0
0.375 0.625 0
0.40625 0.625 0
0.40625 0.59375 0
0.4375 0.59375 0
0.40625 0.625 0
0.4375 0.625 0
0.4375 0.5625 0
0.46875 0.5625 0
0.4375 0.59375 0
0.46875 0.59375 0
0.46875 0.5625 0
0.5 0.5625 0
0.46875 0.59375 0
0.5 0.59375 0
0.4375 0.59375 0
0.46875 0.59375 0
0.4375 0.625 0
0.46875 0.625 0
0.46875 0.59375 0
0.5 0.59375 0
0.46875 0.625 0
0.5 0.625 0
0.25 0.625 0
0.28125 0.625 0
0.25 0.65625 0
0.28125 0.65625 0
0.28125 0.625 0
0.3125 0.625 0
0.28125 0.65625 0
0.3125 0.65625 0
0.25 0.65625 0
0.28125 0.65625 0
0.25 0.6875 0
0.28125 0.6875 0
0.28125 0.65625 0
0.3125 0.65625 0
0.28125 0.6875 0
0.3125 0.6875 0
0.3125 0.625 0
0.34375 0.625 0
0.3125 0.65625 0
0.34375 0.65625 0
0.34375 0.625 0
0.375 0.625 0
0.34375 0.65625 0
0.375 0.65625 0
0.3125 0.65625 0
0.34375 0.65625 0
0.3125 0.6875 0
0.34375 0.6875 0
0.34375 0.65625 0
0.375 0.65625 0
0.34375 0.6875 0
0.375 0.6875 0
0.25 0.6875 0
0.28125 0.6875 0
0.25 0.71875 0
0.28125 0.71875 0
0.28125 0.6875 0
0.3125 0.6875 0
0.28125 0.71875 0
0.3125 0.71875 0
0.25 0.71875 0
0.28125 0.71875 0
0.25 0.75 0
0.28125 0.75 0
0.28125 0.71875 0
0.3125 0.71875 0
0.28125 0.75 0
0.3125 0.75 0
0.3125 0.6875 0
0.34375 0.6875 0
0.3125 0.71875 0
0.34375 0.71875 0
0.34375 0.6875 0
0.375 0.6875 0
0.34375 0.71875 0
0.375 0.71875 0
0.3125 0.71875 0
0.34375 0.71875 0
0.3125 0.75 0
0.34375 0.75 0
0.34375 0.71875 0
0.375 0.71875 0
0.34375 0.75 0
0.375 0.75 0
0.375 0.625 0
0.40625 0.625 0
0.375 0.65625 0
0.40625 0.65625 0
0.40625 0.625 0
0.4375 0.625 0
0.40625 0.65625 0
0.4375 0.65625 0
0.375 0.65625 0
0.40625 0.65625 0
0.375 0.6875 0
0.40625 0.6875 0
0.40625 0.65625 0
0.4375 0.65625 0
0.40625 0.6875 0
0.4375 0.6875 0
0.4375 0.625 0
0.46875 0.625 0
0.4375 0.65625 0
0.46875 0.65625 0
0.46875 0.625 0
0.5 0.625 0
0.46875 0.65625 0
0.5 0.65625 0
0.4375 0.65625 0
0.46875 0.65625 0
0.4375 0.6875 0
0.46875 0.6875 0
0.46875 0.65625 0
0.5 0.65625 0
0.46875 0.6875 0
0.5 0.6875 0
0.375 0.6875 0
0.40625 0.6875 0
0.375 0.71875 0
0.40625 0.71875 0
0.40625 0.6875 0
0.4375 0.6875 0
0.40625 0.71875 0
0.4375 0.71875 0
0.375 0.71875 0
0.40625 0.71875 0
0.375 0.75 0
0.40625 0.75 0
0.40625 0.71875 0
0.4375 0.71875 0
0.40625 0.75 0
0.4375 0.75 0
0.4375 0.6875 0
0.46875 0.6875 0
0.4375 0.71875 0
0.46875 0.71875 0
0.46875 0.6875 0
0.5 0.6875 0
0.46875 0.71875 0
0.5 0.71875 0
0.4375 0.71875 0
0.46875 0.71875 0
0.4375 0.75 0
0.46875 0.75 0
0.46875 0.71875 0
0.5 0.71875 0
0.46875 0.75 0
0.5 0.75 0
0 0.75 0
0.03125 0.75 0
0 0.78125 0
0.03125 0.78125 0
0.03125 0.75 0
0.0625 0.75 0
0.03125 0.78125 0
0.0625 0.78125 0
0 0.78125 0
0.03125 0.78125 0
0 0.8125 0
0.03125 0.8125 0
0.03125 0.78125 0
0.0625 0.78125 0
0.03125 0.8125 0
0.0625 0.8125 0
0.0625 0.75 0
0.09375 0.75 0
0.0625 0.78125 0
0.09375 0.78125 0
0.09375 0.75 0
0.125 0.75 0
0.09375 0.78125 0
0.125 0.78125 0
0.0625 0.78125 0
0.09375 0.78125 0
0.0625 0.8125 0
0.09375 0.8125 0
0.09375 0.78125 0
0.125 0.78125 0
0.09375 0.8125 0
0.125 0.8125 0
0 0.8125 0
0.03125 0.8125 0
0 0.84375 0
0.03125 0.84375 0
0.03125 0.8125 0
0.0625 0.8125 0
0.03125 0.84375 0
0.0625 0.84375 0
0 0.84375 0
0.03125 0.84375 0
0 0.875 0
0.03125 0.875 0
0.03125 0.84375 0
0.0625 0.84375 0
0.03125 0.875 0
0.0625 0.875 0
0.0625 0.8125 0
0.09375 0.8125 0
0.0625 0.84375 0
0.09375 0.84375 0
0.09375 0.8125 0
0.125 0.8125 0
0.09375 0.84375 0
0.125 0.84375 0
0.0625 0.84375 0
0.09375 0.84375 0
0.0625 0.875 0
0.09375 0.875 0
0.09375 0.84375 0
0.125 0.84375 0
0.09375 0.875 0
0.125 0.875 0
0.125 0.75 0
0.15625 0.75 0
0.125 0.78125 0
0.15625 0.78125 0
0.15625 0.75 0
0.1875 0.75 0
0.15625 0.78125 0
0.1875 0.78125 0
0.125 0.78125 0
0.15625 0.78125 0
0.125 0.8125 0
0.15625 0.8125 0
0.15625 0.78125 0
0.1875 0.78125 0
0.15625 0.8125 0
0.1875 0.8125 0
0.1875 0.75 0
0.21875 0.75 0
0.1875 0.78125 0
0.21875 0.78125 0
0.21875 0.75 0
0.25 0.75 0
0.21875 0.78125 0
0.25 0.78125 0
0.1875 0.78125 0
0.21875 0.78125 0
0.1875 0.8125 0
0.21875 0.8125 0
0.21875 0.78125 0
0.25 0.78125 0
0.21875 0.8125 0
0.25 0.8125 0
0.125 0.8125 0
0.15625 0.8125 0
0.125 0.84375 0
0.15625 0.84375 0
0.15625 0.8125 0
[...]
POINT_DATA 4096
SCALARS x_dis double 1
LOOKUP_TABLE default
1.43818e-14 1.66345e-14 -6.73299e-14 -5.94487e-14 1.66345e-14 1.62483e-14 -5.94487e-14 -6.13621e-14 -6.73299e-14 -5.94487e-14 1.94883e-13 2.23391e-13 -5.94487e-14 -6.13621e-14 2.23391e-13 2.29052e-13 1.62483e-14 1.59519e-14 -6.13621e-14 -5.94581e-14 1.59519e-14 1.64289e-14 -5.94581e-14 -6.15375e-14 -6.13621e-14 -5.94581e-14 2.29052e-13 2.18999e-13 -5.94581e-14 -6.15375e-14 2.18999e-13 2.27342e-13 1.94883e-13 2.23391e-13 -9.00873e-13 -7.71389e-13 2.23391e-13 2.29052e-13 -7.71389e-13 -8.41309e-13 -9.00873e-13 -7.71389e-13 2.46523e-12 2.78248e-12 -7.71389e-13 -8.41309e-13 2.78248e-12 3.04059e-12 2.29052e-13 2.18999e-13 -8.41309e-13 -7.91758e-13 2.18999e-13 2.27342e-13 -7.91758e-13 -8.27351e-13 -8.41309e-13 -7.91758e-13 3.04059e-12 2.81912e-12 -7.91758e-13 -8.27351e-13 2.81912e-12 2.95175e-12 1.64289e-14 1.60861e-14 -6.15375e-14 -6.01694e-14 1.60861e-14 1.62815e-14 -6.01694e-14 -6.09292e-14 -6.15375e-14 -6.01694e-14 2.27342e-13 2.22401e-13 -6.01694e-14 -6.09292e-14 2.22401e-13 2.24868e-13 1.62815e-14 1.61894e-14 -6.09292e-14 -6.05773e-14 1.61894e-14 1.6229e-14 -6.05773e-14 -6.07265e-14 -6.09292e-14 -6.05773e-14 2.24868e-13 2.23809e-13 -6.05773e-14 -6.07265e-14 2.23809e-13 2.24229e-13 2.27342e-13 2.22401e-13 -8.27351e-13 -8.07798e-13 2.22401e-13 2.24868e-13 -8.07798e-13 -8.17293e-13 -8.27351e-13 -8.07798e-13 2.95175e-12 2.88562e-12 -8.07798e-13 -8.17293e-13 2.88562e-12 2.91429e-12 2.24868e-13 2.23809e-13 -8.17293e-13 -8.13302e-13 2.23809e-13 2.24229e-13 -8.13302e-13 -8.14856e-13 -8.17293e-13 -8.13302e-13 2.91429e-12 2.90313e-12 -8.13302e-13 -8.14856e-13 2.90313e-12 2.90717e-12 2.46523e-12 2.78248e-12 -1.12472e-11 -9.07288e-12 2.78248e-12 3.04059e-12 -9.07288e-12 -1.07087e-11 -1.12472e-11 -9.07288e-12 2.77793e-11 3.0433e-11 -9.07288e-12 -1.07087e-11 3.0433e-11 3.67183e-11 3.04059e-12 2.81912e-12 -1.07087e-11 -9.72155e-12 2.81912e-12 2.95175e-12 -9.72155e-12 -1.02769e-11 -1.07087e-11 -9.72155e-12 3.67183e-11 3.26783e-11 -9.72155e-12 -1.02769e-11 3.26783e-11 3.45977e-11 2.77793e-11 3.0433e-11 -1.2571e-10 -8.74883e-11 3.0433e-11 3.67183e-11 -8.74883e-11 -1.19411e-10 -1.2571e-10 -8.74883e-11 2.28863e-10 2.47168e-10 -8.74883e-11 -1.19411e-10 2.47168e-10 3.66596e-10 3.67183e-11 3.26783e-11 -1.19411e-10 -1.02994e-10 3.26783e-11 3.45977e-11 -1.02994e-10 -1.10822e-10 -1.19411e-10 -1.02994e-10 3.66596e-10 2.99023e-10 -1.02994e-10 -1.10822e-10 2.99023e-10 3.26823e-10 2.95175e-12 2.88562e-12 -1.02769e-11 -1.00178e-11 2.88562e-12 2.91429e-12 -1.00178e-11 -1.01273e-11 -1.02769e-11 -1.00178e-11 3.45977e-11 3.37861e-11 -1.00178e-11 -1.01273e-11 3.37861e-11 3.40889e-11 2.91429e-12 2.90313e-12 -1.01273e-11 -1.0086e-11 2.90313e-12 2.90717e-12 -1.0086e-11 -1.01006e-11 -1.01273e-11 -1.0086e-11 3.40889e-11 3.39837e-11 -1.0086e-11 -1.01006e-11 3.39837e-11 3.40176e-11 3.45977e-11 3.37861e-11 -1.10822e-10 -1.07678e-10 3.37861e-11 3.40889e-11 -1.07678e-10 -1.08835e-10 -1.10822e-10 -1.07678e-10 3.26823e-10 3.16423e-10 -1.07678e-10 -1.08835e-10 3.16423e-10 3.19795e-10 3.40889e-11 3.39837e-11 -1.08835e-10 -1.08454e-10 3.39837e-11 3.40176e-11 -1.08454e-10 -1.08572e-10 -1.08835e-10 -1.08454e-10 3.19795e-10 3.18798e-10 -1.08454e-10 -1.08572e-10 3.18798e-10 3.19067e-10 1.6229e-14 1.62133e-14 -6.07265e-14 -6.06679e-14 1.62133e-14 1.62192e-14 -6.06679e-14 -6.06896e-14 -6.07265e-14 -6.06679e-14 2.24229e-13 2.24074e-13 -6.06679e-14 -6.06896e-14 2.24074e-13 2.24128e-13 1.62192e-14 1.62169e-14 -6.06896e-14 -6.0682e-14 1.62169e-14 1.62182e-14 -6.0682e-14 -6.06842e-14 -6.06896e-14 -6.0682e-14 2.24128e-13 2.2411e-13 -6.0682e-14 -6.06842e-14 2.2411e-13 2.24115e-13 2.24229e-13 2.24074e-13 -8.14856e-13 -8.14292e-13 2.24074e-13 2.24128e-13 -8.14292e-13 -8.14485e-13 -8.14856e-13 -8.14292e-13 2.90717e-12 2.9058e-12 -8.14292e-13 -8.14485e-13 2.9058e-12 2.90624e-12 2.24128e-13 2.2411e-13 -8.14485e-13 -8.14422e-13 2.2411e-13 2.24115e-13 -8.14422e-13 -8.14442e-13 -8.14485e-13 -8.14422e-13 2.90624e-12 2.90611e-12 -8.14422e-13 -8.14442e-13 2.90611e-12 2.90614e-12 1.62182e-14 1.62172e-14 -6.06842e-14 -6.0685e-14 1.62172e-14 1.62086e-14 -6.0685e-14 -6.0682e-14 -6.06842e-14 -6.0685e-14 2.24115e-13 2.24114e-13 -6.0685e-14 -6.0682e-14 2.24114e-13 2.24114e-13 1.62086e-14 1.63219e-14 -6.0682e-14 -6.0665e-14 1.63219e-14 1.5371e-14 -6.0665e-14 -6.0944e-14 -6.0682e-14 -6.0665e-14 2.24114e-13 2.24116e-13 -6.0665e-14 -6.0944e-14 2.24116e-13 2.24063e-13 2.24115e-13 2.24114e-13 -8.14442e-13 -8.14436e-13 2.24114e-13 2.24114e-13 -8.14436e-13 -8.14438e-13 -8.14442e-13 -8.14436e-13 2.90614e-12 2.90613e-12 -8.14436e-13 -8.14438e-13 2.90613e-12 2.90614e-12 2.24114e-13 2.24116e-13 -8.14438e-13 -8.14435e-13 2.24116e-13 2.24063e-13 -8.14435e-13 -8.14441e-13 -8.14438e-13 -8.14435e-13 2.90614e-12 2.90614e-12 -8.14435e-13 -8.14441e-13 2.90614e-12 2.90613e-12 2.90717e-12 2.9058e-12 -1.01006e-11 -1.00957e-11 2.9058e-12 2.90624e-12 -1.00957e-11 -1.00972e-11 -1.01006e-11 -1.00957e-11 3.40176e-11 3.40074e-11 -1.00957e-11 -1.00972e-11 3.40074e-11 3.40103e-11 2.90624e-12 2.90611e-12 -1.00972e-11 -1.00968e-11 2.90611e-12 2.90614e-12 -1.00968e-11 -1.00969e-11 -1.00972e-11 -1.00968e-11 3.40103e-11 3.40095e-11 -1.00968e-11 -1.00969e-11 3.40095e-11 3.40097e-11 3.40176e-11 3.40074e-11 -1.08572e-10 -1.08538e-10 3.40074e-11 3.40103e-11 -1.08538e-10 -1.08547e-10 -1.08572e-10 -1.08538e-10 3.19067e-10 3.19001e-10 -1.08538e-10 -1.08547e-10 3.19001e-10 3.19015e-10 3.40103e-11 3.40095e-11 -1.08547e-10 -1.08545e-10 3.40095e-11 3.40097e-11 -1.08545e-10 -1.08546e-10 -1.08547e-10 -1.08545e-10 3.19015e-10 3.19013e-10 -1.08545e-10 -1.08546e-10 3.19013e-10 3.19013e-10 2.90614e-12 2.90613e-12 -1.00969e-11 -1.00969e-11 2.90613e-12 2.90614e-12 -1.00969e-11 -1.00969e-11 -1.00969e-11 -1.00969e-11 3.40097e-11 3.40097e-11 -1.00969e-11 -1.00969e-11 3.40097e-11 3.40097e-11 2.90614e-12 2.90614e-12 -1.00969e-11 -1.00969e-11 2.90614e-12 2.90613e-12 -1.00969e-11 -1.00969e-11 -1.00969e-11 -1.00969e-11 3.40097e-11 3.40097e-11 -1.00969e-11 -1.00969e-11 3.40097e-11 3.40097e-11 3.40097e-11 3.40097e-11 -1.08546e-10 -1.08545e-10 3.40097e-11 3.40097e-11 -1.08545e-10 -1.08545e-10 -1.08546e-10 -1.08545e-10 3.19013e-10 3.19013e-10 -1.08545e-10 -1.08545e-10 3.19013e-10 3.19013e-10 3.40097e-11 3.40097e-11 -1.08545e-10 -1.08545e-10 3.40097e-11 3.40097e-11 -1.08545e-10 -1.08545e-10 -1.08545e-10 -1.08545e-10 3.19013e-10 3.19013e-10 -1.08545e-10 -1.08545e-10 3.19013e-10 3.19013e-10 2.28863e-10 2.47168e-10 -1.12627e-09 -4.18356e-10 2.47168e-10 3.66596e-10 -4.18356e-10 -9.58934e-10 -1.12627e-09 -4.18356e-10 -1.2086e-11 -6.65587e-11 -4.18356e-10 -9.58934e-10 -6.65587e-11 1.86918e-09 3.66596e-10 2.99023e-10 -9.58934e-10 -7.19291e-10 2.99023e-10 3.26823e-10 -7.19291e-10 -8.13313e-10 -9.58934e-10 -7.19291e-10 1.86918e-09 9.17919e-10 -7.19291e-10 -8.13313e-10 9.17919e-10 1.24592e-09 -1.2086e-11 -6.65587e-11 -3.74623e-09 9.74077e-09 -6.65587e-11 1.86918e-09 9.74077e-09 1.71167e-09 -3.74623e-09 9.74077e-09 -6.48094e-08 -6.58776e-08 9.74077e-09 1.71167e-09 -6.58776e-08 -4.09978e-08 1.86918e-09 9.17919e-10 1.71167e-09 4.38831e-09 9.17919e-10 1.24592e-09 4.38831e-09 3.61354e-09 1.71167e-09 4.38831e-09 -4.09978e-08 -5.19107e-08 4.38831e-09 3.61354e-09 -5.19107e-08 -4.85899e-08 3.26823e-10 3.16423e-10 -8.13313e-10 -7.80363e-10 3.16423e-10 3.19795e-10 -7.80363e-10 -7.9127e-10 -8.13313e-10 -7.80363e-10 1.24592e-09 1.14488e-09 -7.80363e-10 -7.9127e-10 1.14488e-09 1.17211e-09 3.19795e-10 3.18798e-10 -7.9127e-10 -7.87948e-10 3.18798e-10 3.19067e-10 -7.87948e-10 -7.8891e-10 -7.9127e-10 -7.87948e-10 1.17211e-09 1.16552e-09 -7.87948e-10 -7.8891e-10 1.16552e-09 1.16692e-09 1.24592e-09 1.14488e-09 3.61354e-09 3.80024e-09 1.14488e-09 1.17211e-09 3.80024e-09 3.76043e-09 3.61354e-09 3.80024e-09 -4.85899e-08 -4.94226e-08 3.80024e-09 3.76043e-09 -4.94226e-08 -4.92479e-08 1.17211e-09 1.16552e-09 3.76043e-09 3.76761e-09 1.16552e-09 1.16692e-09 3.76761e-09 3.76671e-09 3.76043e-09 3.76761e-09 -4.92479e-08 -4.92761e-08 3.76761e-09 3.76671e-09 -4.92761e-08 -4.92743e-08 -6.48094e-08 -6.58776e-08 1.71057e-07 4.20304e-07 -6.58776e-08 -4.09978e-08 4.20304e-07 3.23759e-07 1.71057e-07 4.20304e-07 -2.08454e-06 -2.09334e-06 4.20304e-07 3.23759e-07 -2.09334e-06 -1.86284e-06 -4.09978e-08 -5.19107e-08 3.23759e-07 3.4702e-07 -5.19107e-08 -4.85899e-08 3.4702e-07 3.4273e-07 3.23759e-07 3.4702e-07 -1.86284e-06 -1.95602e-06 3.4702e-07 3.4273e-07 -1.95602e-06 -1.92887e-06 -2.08454e-06 -2.09334e-06 6.46156e-06 1.09215e-05 -2.09334e-06 -1.86284e-06 1.09215e-05 1.01555e-05 6.46156e-06 1.09215e-05 -5e-05 -5e-05 1.09215e-05 1.01555e-05 -5e-05 -5e-05 -1.86284e-06 -1.95602e-06 1.01555e-05 1.02562e-05 -1.95602e-06 -1.92887e-06 1.02562e-05 1.02491e-05 1.01555e-05 1.02562e-05 -5e-05 -5e-05 1.02562e-05 1.02491e-05 -5e-05 -5e-05 -4.85899e-08 -4.94226e-08 3.4273e-07 3.43132e-07 -4.94226e-08 -4.92479e-08 3.43132e-07 3.43221e-07 3.4273e-07 3.43132e-07 -1.92887e-06 -1.93595e-06 3.43132e-07 3.43221e-07 -1.93595e-06 -1.93429e-06 -4.92479e-08 -4.92761e-08 3.43221e-07 3.43152e-07 -4.92761e-08 -4.92743e-08 3.43152e-07 3.43179e-07 3.43221e-07 3.43152e-07 -1.93429e-06 -1.93464e-06 3.43152e-07 3.43179e-07 -1.93464e-06 -1.93458e-06 -1.92887e-06 -1.93595e-06 1.02491e-05 1.02474e-05 -1.93595e-06 -1.93429e-06 1.02474e-05 1.02485e-05 1.02491e-05 1.02474e-05 -5e-05 -5e-05 1.02474e-05 1.02485e-05 -5e-05 -5e-05 -1.93429e-06 -1.93464e-06 1.02485e-05 1.02481e-05 -1.93464e-06 -1.93458e-06 1.02481e-05 1.02482e-05 1.02485e-05 1.02481e-05 -5e-05 -5e-05 1.02481e-05 1.02482e-05 -5e-05 -5e-05 3.19067e-10 3.19001e-10 -7.8891e-10 -7.88651e-10 3.19001e-10 3.19015e-10 -7.88651e-10 -7.88715e-10 -7.8891e-10 -7.88651e-10 1.16692e-09 1.16668e-09 -7.88651e-10 -7.88715e-10 1.16668e-09 1.1667e-09 3.19015e-10 3.19013e-10 -7.88715e-10 -7.88701e-10 3.19013e-10 3.19013e-10 -7.88701e-10 -7.88704e-10 -7.88715e-10 -7.88701e-10 1.1667e-09 1.16671e-09 -7.88701e-10 -7.88704e-10 1.16671e-09 1.1667e-09 1.16692e-09 1.16668e-09 3.76671e-09 3.76668e-09 1.16668e-09 1.1667e-09 3.76668e-09 3.76675e-09 3.76671e-09 3.76668e-09 -4.92743e-08 -4.92732e-08 3.76668e-09 3.76675e-09 -4.92732e-08 -4.92739e-08 1.1667e-09 1.16671e-09 3.76675e-09 3.76672e-09 1.16671e-09 1.1667e-09 3.76672e-09 3.76673e-09 3.76675e-09 3.76672e-09 -4.92739e-08 -4.92736e-08 3.76672e-09 3.76673e-09 -4.92736e-08 -4.92737e-08 3.19013e-10 3.19013e-10 -7.88704e-10 -7.88703e-10 3.19013e-10 3.19013e-10 -7.88703e-10 -7.88703e-10 -7.88704e-10 -7.88703e-10 1.1667e-09 1.16671e-09 -7.88703e-10 -7.88703e-10 1.16671e-09 1.16671e-09 3.19013e-10 3.19013e-10 -7.88703e-10 -7.88703e-10 3.19013e-10 3.19013e-10 -7.88703e-10 -7.88703e-10 -7.88703e-10 -7.88703e-10 1.16671e-09 1.16671e-09 -7.88703e-10 -7.88703e-10 1.16671e-09 1.16671e-09 1.1667e-09 1.16671e-09 3.76673e-09 3.76673e-09 1.16671e-09 1.16671e-09 3.76673e-09 3.76673e-09 3.76673e-09 3.76673e-09 -4.92737e-08 -4.92737e-08 3.76673e-09 3.76673e-09 -4.92737e-08 -4.92737e-08 1.16671e-09 1.16671e-09 3.76673e-09 3.76673e-09 1.16671e-09 1.16671e-09 3.76673e-09 3.76673e-09 3.76673e-09 3.76673e-09 -4.92737e-08 -4.92737e-08 3.76673e-09 3.76673e-09 -4.92737e-08 -4.92737e-08 -4.92743e-08 -4.92732e-08 3.43179e-07 3.43171e-07 -4.92732e-08 -4.92739e-08 3.43171e-07 3.43173e-07 3.43179e-07 3.43171e-07 -1.93458e-06 -1.93459e-06 3.43171e-07 3.43173e-07 -1.93459e-06 -1.93459e-06 -4.92739e-08 -4.92736e-08 3.43173e-07 3.43173e-07 -4.92736e-08 -4.92737e-08 3.43173e-07 3.43173e-07 3.43173e-07 3.43173e-07 -1.93459e-06 -1.93459e-06 3.43173e-07 3.43173e-07 -1.93459e-06 -1.93459e-06 -1.93458e-06 -1.93459e-06 1.02482e-05 1.02482e-05 -1.93459e-06 -1.93459e-06 1.02482e-05 1.02482e-05 1.02482e-05 1.02482e-05 -5e-05 -5e-05 1.02482e-05 1.02482e-05 -5e-05 -5e-05 -1.93459e-06 -1.93459e-06 1.02482e-05 1.02482e-05 -1.93459e-06 -1.93459e-06 1.02482e-05 1.02482e-05 1.02482e-05 1.02482e-05 -5e-05 -5e-05 1.02482e-05 1.02482e-05 -5e-05 -5e-05 -4.92737e-08 -4.92737e-08 3.43173e-07 3.43173e-07 -4.92737e-08 -4.92737e-08 3.43173e-07 3.43173e-07 3.43173e-07 3.43173e-07 -1.93459e-06 -1.93459e-06 3.43173e-07 3.43173e-07 -1.93459e-06 -1.93459e-06 -4.92737e-08 -4.92737e-08 3.43173e-07 3.43173e-07 -4.92737e-08 -4.92737e-08 3.43173e-07 3.43173e-07 3.43173e-07 3.43173e-07 -1.93459e-06 -1.93459e-06 3.43173e-07 3.43173e-07 -1.93459e-06 -1.93459e-06 -1.93459e-06 -1.93459e-06 1.02482e-05 1.02482e-05 -1.93459e-06 -1.93459e-06 1.02482e-05 1.02482e-05 1.02482e-05 1.02482e-05 -5e-05 -5e-05 1.02482e-05 1.02482e-05 -5e-05 -5e-05 -1.93459e-06 -1.93459e-06 1.02482e-05 1.02482e-05 -1.93459e-06 -1.93459e-06 1.02482e-05 1.02482e-05 1.02482e-05 1.02482e-05 -5e-05 -5e-05 1.02482e-05 1.02482e-05 -5e-05 -5e-05 1.5371e-14 3.71888e-14 -6.0944e-14 -6.61433e-14 3.71888e-14 3.14978e-14 -6.61433e-14 -6.47251e-14 -6.0944e-14 -6.61433e-14 2.24063e-13 2.25467e-13 -6.61433e-14 -6.47251e-14 2.25467e-13 2.25213e-13 3.14978e-14 3.27314e-14 -6.47251e-14 -6.50663e-14 3.27314e-14 3.24385e-14 -6.50663e-14 -6.49914e-14 -6.47251e-14 -6.50663e-14 2.25213e-13 2.25248e-13 -6.50663e-14 -6.49914e-14 2.25248e-13 2.25242e-13 2.24063e-13 2.25467e-13 -8.14441e-13 -8.14799e-13 2.25467e-13 2.25213e-13 -8.14799e-13 -8.14719e-13 -8.14441e-13 -8.14799e-13 2.90613e-12 2.90622e-12 -8.14799e-13 -8.14719e-13 2.90622e-12 2.90621e-12 2.25213e-13 2.25248e-13 -8.14719e-13 -8.14732e-13 2.25248e-13 2.25242e-13 -8.14732e-13 -8.14727e-13 -8.14719e-13 -8.14732e-13 2.90621e-12 2.90621e-12 -8.14732e-13 -8.14727e-13 2.90621e-12 2.9062e-12 3.24385e-14 3.24999e-14 -6.49914e-14 -6.50063e-14 3.24999e-14 3.24862e-14 -6.50063e-14 -6.50012e-14 -6.49914e-14 -6.50063e-14 2.25242e-13 2.25246e-13 -6.50063e-14 -6.50012e-14 2.25246e-13 2.25236e-13 3.24862e-14 3.24926e-14 -6.50012e-14 -6.50094e-14 3.24926e-14 3.24825e-14 -6.50094e-14 -6.49903e-14 -6.50012e-14 -6.50094e-14 2.25236e-13 2.2526e-13 -6.50094e-14 -6.49903e-14 2.2526e-13 2.25202e-13 2.25242e-13 2.25246e-13 -8.14727e-13 -8.14736e-13 2.25246e-13 2.25236e-13 -8.14736e-13 -8.14712e-13 -8.14727e-13 -8.14736e-13 2.9062e-12 2.90623e-12 -8.14736e-13 -8.14712e-13 2.90623e-12 2.90615e-12 2.25236e-13 2.2526e-13 -8.14712e-13 -8.14776e-13 2.2526e-13 2.25202e-13 -8.14776e-13 -8.14614e-13 -8.14712e-13 -8.14776e-13 2.90615e-12 2.90638e-12 -8.14776e-13 -8.14614e-13 2.90638e-12 2.90577e-12 2.90613e-12 2.90622e-12 -1.00969e-11 -1.00969e-11 2.90622e-12 2.90621e-12 -1.00969e-11 -1.00969e-11 -1.00969e-11 -1.00969e-11 3.40097e-11 3.40097e-11 -1.00969e-11 -1.00969e-11 3.40097e-11 3.40097e-11 2.90621e-12 2.90621e-12 -1.00969e-11 -1.00969e-11 2.90621e-12 2.9062e-12 -1.00969e-11 -1.00969e-11 -1.00969e-11 -1.00969e-11 3.40097e-11 3.40097e-11 -1.00969e-11 -1.00969e-11 3.40097e-11 3.40096e-11 3.40097e-11 3.40097e-11 -1.08545e-10 -1.08545e-10 3.40097e-11 3.40097e-11 -1.08545e-10 -1.08545e-10 -1.08545e-10 -1.08545e-10 3.19013e-10 3.19013e-10 -1.08545e-10 -1.08545e-10 3.19013e-10 3.19013e-10 3.40097e-11 3.40097e-11 -1.08545e-10 -1.08545e-10 3.40097e-11 3.40096e-11 -1.08545e-10 -1.08545e-10 -1.08545e-10 -1.08545e-10 3.19013e-10 3.19013e-10 -1.08545e-10 -1.08545e-10 3.19013e-10 3.19013e-10 2.9062e-12 2.90623e-12 -1.00969e-11 -1.0097e-11 2.90623e-12 2.90615e-12 -1.0097e-11 -1.00968e-11 -1.00969e-11 -1.0097e-11 3.40096e-11 3.40098e-11 -1.0097e-11 -1.00968e-11 3.40098e-11 3.40091e-11 2.90615e-12 2.90638e-12 -1.00968e-11 -1.00973e-11 2.90638e-12 2.90577e-12 -1.00973e-11 -1.00957e-11 -1.00968e-11 -1.00973e-11 3.40091e-11 3.40112e-11 -1.00973e-11 -1.00957e-11 3.40112e-11 3.40052e-11 3.40096e-11 3.40098e-11 -1.08545e-10 -1.08546e-10 3.40098e-11 3.40091e-11 -1.08546e-10 -1.08544e-10 -1.08545e-10 -1.08546e-10 3.19013e-10 3.19014e-10 -1.08546e-10 -1.08544e-10 3.19014e-10 3.1901e-10 3.40091e-11 3.40112e-11 -1.08544e-10 -1.08549e-10 3.40112e-11 3.40052e-11 -1.08549e-10 -1.08535e-10 -1.08544e-10 -1.08549e-10 3.1901e-10 3.19023e-10 -1.08549e-10 -1.08535e-10 3.19023e-10 3.18979e-10 3.24825e-14 3.25034e-14 -6.49903e-14 -6.5032e-14 3.25034e-14 3.24631e-14 -6.5032e-14 -6.49494e-14 -6.49903e-14 -6.5032e-14 2.25202e-13 2.25332e-13 -6.5032e-14 -6.49494e-14 2.25332e-13 2.25064e-13 3.24631e-14 3.25328e-14 -6.49494e-14 -6.50965e-14 3.25328e-14 3.24237e-14 -6.50965e-14 -6.48569e-14 -6.49494e-14 -6.50965e-14 2.25064e-13 2.25568e-13 -6.50965e-14 -6.48569e-14 2.25568e-13 2.24712e-13 2.25202e-13 2.25332e-13 -8.14614e-13 -8.15003e-13 2.25332e-13 2.25064e-13 -8.15003e-13 -8.14136e-13 -8.14614e-13 -8.15003e-13 2.90577e-12 2.90727e-12 -8.15003e-13 -8.14136e-13 2.90727e-12 2.90382e-12 2.25064e-13 2.25568e-13 -8.14136e-13 -8.15897e-13 2.25568e-13 2.24712e-13 -8.15897e-13 -8.1275e-13 -8.14136e-13 -8.15897e-13 2.90382e-12 2.91109e-12 -8.15897e-13 -8.1275e-13 2.91109e-12 2.89766e-12 3.24237e-14 3.25752e-14 -6.48569e-14 -6.52317e-14 3.25752e-14 3.25677e-14 -6.52317e-14 -6.48523e-14 -6.48569e-14 -6.52317e-14 2.24712e-13 2.25939e-13 -6.52317e-14 -6.48523e-14 2.25939e-13 2.2592e-13 3.25677e-14 3.14301e-14 -6.48523e-14 -6.55037e-14 3.14301e-14 3.61838e-14 -6.55037e-14 -5.65368e-14 -6.48523e-14 -6.55037e-14 2.2592e-13 2.17996e-13 -6.55037e-14 -5.65368e-14 2.17996e-13 2.44974e-13 2.24712e-13 2.25939e-13 -8.1275e-13 -8.17049e-13 2.25939e-13 2.2592e-13 -8.17049e-13 -8.16965e-13 -8.1275e-13 -8.17049e-13 2.89766e-12 2.91592e-12 -8.17049e-13 -8.16965e-13 2.91592e-12 2.92284e-12 2.2592e-13 2.17996e-13 -8.16965e-13 -8.14612e-13 2.17996e-13 2.44974e-13 -8.14612e-13 -6.72115e-13 -8.16965e-13 -8.14612e-13 2.92284e-12 2.79601e-12 -8.14612e-13 -6.72115e-13 2.79601e-12 3.07992e-12 2.90577e-12 2.90727e-12 -1.00957e-11 -1.01e-11 2.90727e-12 2.90382e-12 -1.01e-11 -1.00894e-11 -1.00957e-11 -1.01e-11 3.40052e-11 3.40217e-11 -1.01e-11 -1.00894e-11 3.40217e-11 3.39792e-11 2.90382e-12 2.91109e-12 -1.00894e-11 -1.01135e-11 2.91109e-12 2.89766e-12 -1.01135e-11 -1.00663e-11 -1.00894e-11 -1.01135e-11 3.39792e-11 3.40798e-11 -1.01135e-11 -1.00663e-11 3.40798e-11 3.38738e-11 3.40052e-11 3.40217e-11 -1.08535e-10 -1.08577e-10 3.40217e-11 3.39792e-11 -1.08577e-10 -1.08458e-10 -1.08535e-10 -1.08577e-10 3.18979e-10 3.19119e-10 -1.08577e-10 -1.08458e-10 3.19119e-10 3.18701e-10 3.39792e-11 3.40798e-11 -1.08458e-10 -1.08765e-10 3.40798e-11 3.38738e-11 -1.08765e-10 -1.08093e-10 -1.08458e-10 -1.08765e-10 3.18701e-10 3.19852e-10 -1.08765e-10 -1.08093e-10 3.19852e-10 3.17082e-10 2.89766e-12 2.91592e-12 -1.00663e-11 -1.01306e-11 2.91592e-12 2.92284e-12 -1.01306e-11 -1.01463e-11 -1.00663e-11 -1.01306e-11 3.38738e-11 3.41742e-11 -1.01306e-11 -1.01463e-11 3.41742e-11 3.42195e-11 2.92284e-12 2.79601e-12 -1.01463e-11 -1.00735e-11 2.79601e-12 3.07992e-12 -1.00735e-11 -7.64758e-12 -1.01463e-11 -1.00735e-11 3.42195e-11 3.25632e-11 -1.00735e-11 -7.64758e-12 3.25632e-11 3.4739e-11 3.38738e-11 3.41742e-11 -1.08093e-10 -1.09113e-10 3.41742e-11 3.42195e-11 -1.09113e-10 -1.08975e-10 -1.08093e-10 -1.09113e-10 3.17082e-10 3.22049e-10 -1.09113e-10 -1.08975e-10 3.22049e-10 3.19536e-10 3.42195e-11 3.25632e-11 -1.08975e-10 -1.09937e-10 3.25632e-11 3.4739e-11 -1.09937e-10 -6.68756e-11 -1.08975e-10 -1.09937e-10 3.19536e-10 3.05066e-10 -1.09937e-10 -6.68756e-11 3.05066e-10 3.13909e-10 3.19013e-10 3.19013e-10 -7.88703e-10 -7.88703e-10 3.19013e-10 3.19013e-10 -7.88703e-10 -7.88703e-10 -7.88703e-10 -7.88703e-10 1.16671e-09 1.16671e-09 -7.88703e-10 -7.88703e-10 1.16671e-09 1.16671e-09 3.19013e-10 3.19013e-10 -7.88703e-10 -7.88703e-10 3.19013e-10 3.19013e-10 -7.88703e-10 -7.88703e-10 -7.88703e-10 -7.88703e-10 1.16671e-09 1.16671e-09 -7.88703e-10 -7.88703e-10 1.16671e-09 1.1667e-09 1.16671e-09 1.16671e-09 3.76673e-09 3.76673e-09 1.16671e-09 1.16671e-09 3.76673e-09 3.76673e-09 3.76673e-09 3.76673e-09 -4.92737e-08 -4.92737e-08 3.76673e-09 3.76673e-09 -4.92737e-08 -4.92737e-08 1.16671e-09 1.16671e-09 3.76673e-09 3.76673e-09 1.16671e-09 1.1667e-09 3.76673e-09 3.76673e-09 3.76673e-09 3.76673e-09 -4.92737e-08 -4.92737e-08 3.76673e-09 3.76673e-09 -4.92737e-08 -4.92737e-08 3.19013e-10 3.19014e-10 -7.88703e-10 -7.88706e-10 3.19014e-10 3.1901e-10 -7.88706e-10 -7.88694e-10 -7.88703e-10 -7.88706e-10 1.1667e-09 1.16671e-09 -7.88706e-10 -7.88694e-10 1.16671e-09 1.16668e-09 3.1901e-10 3.19023e-10 -7.88694e-10 -7.88737e-10 3.19023e-10 3.18979e-10 -7.