# vtk DataFile Version 3.0
#This file was generated by the deal.II library on 2022/11/2 at 18:41:44
ASCII
DATASET UNSTRUCTURED_GRID

POINTS 4096 double
0 0.5 0
0.03125 0.5 0
0 0.53125 0
0.03125 0.53125 0
0.03125 0.5 0
0.0625 0.5 0
0.03125 0.53125 0
0.0625 0.53125 0
0 0.53125 0
0.03125 0.53125 0
0 0.5625 0
0.03125 0.5625 0
0.03125 0.53125 0
0.0625 0.53125 0
0.03125 0.5625 0
0.0625 0.5625 0
0.0625 0.5 0
0.09375 0.5 0
0.0625 0.53125 0
0.09375 0.53125 0
0.09375 0.5 0
0.125 0.5 0
0.09375 0.53125 0
0.125 0.53125 0
0.0625 0.53125 0
0.09375 0.53125 0
0.0625 0.5625 0
0.09375 0.5625 0
0.09375 0.53125 0
0.125 0.53125 0
0.09375 0.5625 0
0.125 0.5625 0
0 0.5625 0
0.03125 0.5625 0
0 0.59375 0
0.03125 0.59375 0
0.03125 0.5625 0
0.0625 0.5625 0
0.03125 0.59375 0
0.0625 0.59375 0
0 0.59375 0
0.03125 0.59375 0
0 0.625 0
0.03125 0.625 0
0.03125 0.59375 0
0.0625 0.59375 0
0.03125 0.625 0
0.0625 0.625 0
0.0625 0.5625 0
0.09375 0.5625 0
0.0625 0.59375 0
0.09375 0.59375 0
0.09375 0.5625 0
0.125 0.5625 0
0.09375 0.59375 0
0.125 0.59375 0
0.0625 0.59375 0
0.09375 0.59375 0
0.0625 0.625 0
0.09375 0.625 0
0.09375 0.59375 0
0.125 0.59375 0
0.09375 0.625 0
0.125 0.625 0
0.125 0.5 0
0.15625 0.5 0
0.125 0.53125 0
0.15625 0.53125 0
0.15625 0.5 0
0.1875 0.5 0
0.15625 0.53125 0
0.1875 0.53125 0
0.125 0.53125 0
0.15625 0.53125 0
0.125 0.5625 0
0.15625 0.5625 0
0.15625 0.53125 0
0.1875 0.53125 0
0.15625 0.5625 0
0.1875 0.5625 0
0.1875 0.5 0
0.21875 0.5 0
0.1875 0.53125 0
0.21875 0.53125 0
0.21875 0.5 0
0.25 0.5 0
0.21875 0.53125 0
0.25 0.53125 0
0.1875 0.53125 0
0.21875 0.53125 0
0.1875 0.5625 0
0.21875 0.5625 0
0.21875 0.53125 0
0.25 0.53125 0
0.21875 0.5625 0
0.25 0.5625 0
0.125 0.5625 0
0.15625 0.5625 0
0.125 0.59375 0
0.15625 0.59375 0
0.15625 0.5625 0
0.1875 0.5625 0
0.15625 0.59375 0
0.1875 0.59375 0
0.125 0.59375 0
0.15625 0.59375 0
0.125 0.625 0
0.15625 0.625 0
0.15625 0.59375 0
0.1875 0.59375 0
0.15625 0.625 0
0.1875 0.625 0
0.1875 0.5625 0
0.21875 0.5625 0
0.1875 0.59375 0
0.21875 0.59375 0
0.21875 0.5625 0
0.25 0.5625 0
0.21875 0.59375 0
0.25 0.59375 0
0.1875 0.59375 0
0.21875 0.59375 0
0.1875 0.625 0
0.21875 0.625 0
0.21875 0.59375 0
0.25 0.59375 0
0.21875 0.625 0
0.25 0.625 0
0 0.625 0
0.03125 0.625 0
0 0.65625 0
0.03125 0.65625 0
0.03125 0.625 0
0.0625 0.625 0
0.03125 0.65625 0
0.0625 0.65625 0
0 0.65625 0
0.03125 0.65625 0
0 0.6875 0
0.03125 0.6875 0
0.03125 0.65625 0
0.0625 0.65625 0
0.03125 0.6875 0
0.0625 0.6875 0
0.0625 0.625 0
0.09375 0.625 0
0.0625 0.65625 0
0.09375 0.65625 0
0.09375 0.625 0
0.125 0.625 0
0.09375 0.65625 0
0.125 0.65625 0
0.0625 0.65625 0
0.09375 0.65625 0
0.0625 0.6875 0
0.09375 0.6875 0
0.09375 0.65625 0
0.125 0.65625 0
0.09375 0.6875 0
0.125 0.6875 0
0 0.6875 0
0.03125 0.6875 0
0 0.71875 0
0.03125 0.71875 0
0.03125 0.6875 0
0.0625 0.6875 0
0.03125 0.71875 0
0.0625 0.71875 0
0 0.71875 0
0.03125 0.71875 0
0 0.75 0
0.03125 0.75 0
0.03125 0.71875 0
0.0625 0.71875 0
0.03125 0.75 0
0.0625 0.75 0
0.0625 0.6875 0
0.09375 0.6875 0
0.0625 0.71875 0
0.09375 0.71875 0
0.09375 0.6875 0
0.125 0.6875 0
0.09375 0.71875 0
0.125 0.71875 0
0.0625 0.71875 0
0.09375 0.71875 0
0.0625 0.75 0
0.09375 0.75 0
0.09375 0.71875 0
0.125 0.71875 0
0.09375 0.75 0
0.125 0.75 0
0.125 0.625 0
0.15625 0.625 0
0.125 0.65625 0
0.15625 0.65625 0
0.15625 0.625 0
0.1875 0.625 0
0.15625 0.65625 0
0.1875 0.65625 0
0.125 0.65625 0
0.15625 0.65625 0
0.125 0.6875 0
0.15625 0.6875 0
0.15625 0.65625 0
0.1875 0.65625 0
0.15625 0.6875 0
0.1875 0.6875 0
0.1875 0.625 0
0.21875 0.625 0
0.1875 0.65625 0
0.21875 0.65625 0
0.21875 0.625 0
0.25 0.625 0
0.21875 0.65625 0
0.25 0.65625 0
0.1875 0.65625 0
0.21875 0.65625 0
0.1875 0.6875 0
0.21875 0.6875 0
0.21875 0.65625 0
0.25 0.65625 0
0.21875 0.6875 0
0.25 0.6875 0
0.125 0.6875 0
0.15625 0.6875 0
0.125 0.71875 0
0.15625 0.71875 0
0.15625 0.6875 0
0.1875 0.6875 0
0.15625 0.71875 0
0.1875 0.71875 0
0.125 0.71875 0
0.15625 0.71875 0
0.125 0.75 0
0.15625 0.75 0
0.15625 0.71875 0
0.1875 0.71875 0
0.15625 0.75 0
0.1875 0.75 0
0.1875 0.6875 0
0.21875 0.6875 0
0.1875 0.71875 0
0.21875 0.71875 0
0.21875 0.6875 0
0.25 0.6875 0
0.21875 0.71875 0
0.25 0.71875 0
0.1875 0.71875 0
0.21875 0.71875 0
0.1875 0.75 0
0.21875 0.75 0
0.21875 0.71875 0
0.25 0.71875 0
0.21875 0.75 0
0.25 0.75 0
0.25 0.5 0
0.28125 0.5 0
0.25 0.53125 0
0.28125 0.53125 0
0.28125 0.5 0
0.3125 0.5 0
0.28125 0.53125 0
0.3125 0.53125 0
0.25 0.53125 0
0.28125 0.53125 0
0.25 0.5625 0
0.28125 0.5625 0
0.28125 0.53125 0
0.3125 0.53125 0
0.28125 0.5625 0
0.3125 0.5625 0
0.3125 0.5 0
0.34375 0.5 0
0.3125 0.53125 0
0.34375 0.53125 0
0.34375 0.5 0
0.375 0.5 0
0.34375 0.53125 0
0.375 0.53125 0
0.3125 0.53125 0
0.34375 0.53125 0
0.3125 0.5625 0
0.34375 0.5625 0
0.34375 0.53125 0
0.375 0.53125 0
0.34375 0.5625 0
0.375 0.5625 0
0.25 0.5625 0
0.28125 0.5625 0
0.25 0.59375 0
0.28125 0.59375 0
0.28125 0.5625 0
0.3125 0.5625 0
0.28125 0.59375 0
0.3125 0.59375 0
0.25 0.59375 0
0.28125 0.59375 0
0.25 0.625 0
0.28125 0.625 0
0.28125 0.59375 0
0.3125 0.59375 0
0.28125 0.625 0
0.3125 0.625 0
0.3125 0.5625 0
0.34375 0.5625 0
0.3125 0.59375 0
0.34375 0.59375 0
0.34375 0.5625 0
0.375 0.5625 0
0.34375 0.59375 0
0.375 0.59375 0
0.3125 0.59375 0
0.34375 0.59375 0
0.3125 0.625 0
0.34375 0.625 0
0.34375 0.59375 0
0.375 0.59375 0
0.34375 0.625 0
0.375 0.625 0
0.375 0.5 0
0.40625 0.5 0
0.375 0.53125 0
0.40625 0.53125 0
0.40625 0.5 0
0.4375 0.5 0
0.40625 0.53125 0
0.4375 0.53125 0
0.375 0.53125 0
0.40625 0.53125 0
0.375 0.5625 0
0.40625 0.5625 0
0.40625 0.53125 0
0.4375 0.53125 0
0.40625 0.5625 0
0.4375 0.5625 0
0.4375 0.5 0
0.46875 0.5 0
0.4375 0.53125 0
0.46875 0.53125 0
0.46875 0.5 0
0.5 0.5 0
0.46875 0.53125 0
0.5 0.53125 0
0.4375 0.53125 0
0.46875 0.53125 0
0.4375 0.5625 0
0.46875 0.5625 0
0.46875 0.53125 0
0.5 0.53125 0
0.46875 0.5625 0
0.5 0.5625 0
0.375 0.5625 0
0.40625 0.5625 0
0.375 0.59375 0
0.40625 0.59375 0
0.40625 0.5625 0
0.4375 0.5625 0
0.40625 0.59375 0
0.4375 0.59375 0
0.375 0.59375 0
0.40625 0.59375 0
0.375 0.625 0
0.40625 0.625 0
0.40625 0.59375 0
0.4375 0.59375 0
0.40625 0.625 0
0.4375 0.625 0
0.4375 0.5625 0
0.46875 0.5625 0
0.4375 0.59375 0
0.46875 0.59375 0
0.46875 0.5625 0
0.5 0.5625 0
0.46875 0.59375 0
0.5 0.59375 0
0.4375 0.59375 0
0.46875 0.59375 0
0.4375 0.625 0
0.46875 0.625 0
0.46875 0.59375 0
0.5 0.59375 0
0.46875 0.625 0
0.5 0.625 0
0.25 0.625 0
0.28125 0.625 0
0.25 0.65625 0
0.28125 0.65625 0
0.28125 0.625 0
0.3125 0.625 0
0.28125 0.65625 0
0.3125 0.65625 0
0.25 0.65625 0
0.28125 0.65625 0
0.25 0.6875 0
0.28125 0.6875 0
0.28125 0.65625 0
0.3125 0.65625 0
0.28125 0.6875 0
0.3125 0.6875 0
0.3125 0.625 0
0.34375 0.625 0
0.3125 0.65625 0
0.34375 0.65625 0
0.34375 0.625 0
0.375 0.625 0
0.34375 0.65625 0
0.375 0.65625 0
0.3125 0.65625 0
0.34375 0.65625 0
0.3125 0.6875 0
0.34375 0.6875 0
0.34375 0.65625 0
0.375 0.65625 0
0.34375 0.6875 0
0.375 0.6875 0
0.25 0.6875 0
0.28125 0.6875 0
0.25 0.71875 0
0.28125 0.71875 0
0.28125 0.6875 0
0.3125 0.6875 0
0.28125 0.71875 0
0.3125 0.71875 0
0.25 0.71875 0
0.28125 0.71875 0
0.25 0.75 0
0.28125 0.75 0
0.28125 0.71875 0
0.3125 0.71875 0
0.28125 0.75 0
0.3125 0.75 0
0.3125 0.6875 0
0.34375 0.6875 0
0.3125 0.71875 0
0.34375 0.71875 0
0.34375 0.6875 0
0.375 0.6875 0
0.34375 0.71875 0
0.375 0.71875 0
0.3125 0.71875 0
0.34375 0.71875 0
0.3125 0.75 0
0.34375 0.75 0
0.34375 0.71875 0
0.375 0.71875 0
0.34375 0.75 0
0.375 0.75 0
0.375 0.625 0
0.40625 0.625 0
0.375 0.65625 0
0.40625 0.65625 0
0.40625 0.625 0
0.4375 0.625 0
0.40625 0.65625 0
0.4375 0.65625 0
0.375 0.65625 0
0.40625 0.65625 0
0.375 0.6875 0
0.40625 0.6875 0
0.40625 0.65625 0
0.4375 0.65625 0
0.40625 0.6875 0
0.4375 0.6875 0
0.4375 0.625 0
0.46875 0.625 0
0.4375 0.65625 0
0.46875 0.65625 0
0.46875 0.625 0
0.5 0.625 0
0.46875 0.65625 0
0.5 0.65625 0
0.4375 0.65625 0
0.46875 0.65625 0
0.4375 0.6875 0
0.46875 0.6875 0
0.46875 0.65625 0
0.5 0.65625 0
0.46875 0.6875 0
0.5 0.6875 0
0.375 0.6875 0
0.40625 0.6875 0
0.375 0.71875 0
0.40625 0.71875 0
0.40625 0.6875 0
0.4375 0.6875 0
0.40625 0.71875 0
0.4375 0.71875 0
0.375 0.71875 0
0.40625 0.71875 0
0.375 0.75 0
0.40625 0.75 0
0.40625 0.71875 0
0.4375 0.71875 0
0.40625 0.75 0
0.4375 0.75 0
0.4375 0.6875 0
0.46875 0.6875 0
0.4375 0.71875 0
0.46875 0.71875 0
0.46875 0.6875 0
0.5 0.6875 0
0.46875 0.71875 0
0.5 0.71875 0
0.4375 0.71875 0
0.46875 0.71875 0
0.4375 0.75 0
0.46875 0.75 0
0.46875 0.71875 0
0.5 0.71875 0
0.46875 0.75 0
0.5 0.75 0
0 0.75 0
0.03125 0.75 0
0 0.78125 0
0.03125 0.78125 0
0.03125 0.75 0
0.0625 0.75 0
0.03125 0.78125 0
0.0625 0.78125 0
0 0.78125 0
0.03125 0.78125 0
0 0.8125 0
0.03125 0.8125 0
0.03125 0.78125 0
0.0625 0.78125 0
0.03125 0.8125 0
0.0625 0.8125 0
0.0625 0.75 0
0.09375 0.75 0
0.0625 0.78125 0
0.09375 0.78125 0
0.09375 0.75 0
0.125 0.75 0
0.09375 0.78125 0
0.125 0.78125 0
0.0625 0.78125 0
0.09375 0.78125 0
0.0625 0.8125 0
0.09375 0.8125 0
0.09375 0.78125 0
0.125 0.78125 0
0.09375 0.8125 0
0.125 0.8125 0
0 0.8125 0
0.03125 0.8125 0
0 0.84375 0
0.03125 0.84375 0
0.03125 0.8125 0
0.0625 0.8125 0
0.03125 0.84375 0
0.0625 0.84375 0
0 0.84375 0
0.03125 0.84375 0
0 0.875 0
0.03125 0.875 0
0.03125 0.84375 0
0.0625 0.84375 0
0.03125 0.875 0
0.0625 0.875 0
0.0625 0.8125 0
0.09375 0.8125 0
0.0625 0.84375 0
0.09375 0.84375 0
0.09375 0.8125 0
0.125 0.8125 0
0.09375 0.84375 0
0.125 0.84375 0
0.0625 0.84375 0
0.09375 0.84375 0
0.0625 0.875 0
0.09375 0.875 0
0.09375 0.84375 0
0.125 0.84375 0
0.09375 0.875 0
0.125 0.875 0
0.125 0.75 0
0.15625 0.75 0
0.125 0.78125 0
0.15625 0.78125 0
0.15625 0.75 0
0.1875 0.75 0
0.15625 0.78125 0
0.1875 0.78125 0
0.125 0.78125 0
0.15625 0.78125 0
0.125 0.8125 0
0.15625 0.8125 0
0.15625 0.78125 0
0.1875 0.78125 0
0.15625 0.8125 0
0.1875 0.8125 0
0.1875 0.75 0
0.21875 0.75 0
0.1875 0.78125 0
0.21875 0.78125 0
0.21875 0.75 0
0.25 0.75 0
0.21875 0.78125 0
0.25 0.78125 0
0.1875 0.78125 0
0.21875 0.78125 0
0.1875 0.8125 0
0.21875 0.8125 0
0.21875 0.78125 0
0.25 0.78125 0
0.21875 0.8125 0
0.25 0.8125 0
0.125 0.8125 0
0.15625 0.8125 0
0.125 0.84375 0
0.15625 0.84375 0
0.15625 0.8125 0
[...]
POINT_DATA 4096
SCALARS x_dis double 1
LOOKUP_TABLE default
-1.10882e-13 -6.77861e-14 2.12701e-13 3.00831e-13 -6.77861e-14 -9.60283e-15 3.00831e-13 1.29972e-13 2.12701e-13 3.00831e-13 -1.89319e-12 -1.37159e-12 3.00831e-13 1.29972e-13 -1.37159e-12 -7.24426e-13 -9.60283e-15 -3.10842e-14 1.29972e-13 1.93955e-13 -3.10842e-14 -3.23858e-14 1.93955e-13 2.0695e-13 1.29972e-13 1.93955e-13 -7.24426e-13 -9.89136e-13 1.93955e-13 2.0695e-13 -9.89136e-13 -1.0547e-12 -1.89319e-12 -1.37159e-12 3.91893e-12 5.23936e-12 -1.37159e-12 -7.24426e-13 5.23936e-12 3.7311e-12 3.91893e-12 5.23936e-12 -2.69454e-11 -2.14782e-11 5.23936e-12 3.7311e-12 -2.14782e-11 -1.62659e-11 -7.24426e-13 -9.89136e-13 3.7311e-12 4.4309e-12 -9.89136e-13 -1.0547e-12 4.4309e-12 4.69342e-12 3.7311e-12 4.4309e-12 -1.62659e-11 -1.85025e-11 4.4309e-12 4.69342e-12 -1.85025e-11 -1.98039e-11 -3.23858e-14 -2.97319e-14 2.0695e-13 1.9389e-13 -2.97319e-14 -3.12826e-14 1.9389e-13 1.99314e-13 2.0695e-13 1.9389e-13 -1.0547e-12 -9.90297e-13 1.9389e-13 1.99314e-13 -9.90297e-13 -1.01868e-12 -3.12826e-14 -3.05765e-14 1.99314e-13 1.97571e-13 -3.05765e-14 -3.08336e-14 1.97571e-13 1.98053e-13 1.99314e-13 1.97571e-13 -1.01868e-12 -1.01067e-12 1.97571e-13 1.98053e-13 -1.01067e-12 -1.01188e-12 -1.0547e-12 -9.90297e-13 4.69342e-12 4.48158e-12 -9.90297e-13 -1.01868e-12 4.48158e-12 4.56116e-12 4.69342e-12 4.48158e-12 -1.98039e-11 -1.8916e-11 4.48158e-12 4.56116e-12 -1.8916e-11 -1.92427e-11 -1.01868e-12 -1.01067e-12 4.56116e-12 4.54374e-12 -1.01067e-12 -1.01188e-12 4.54374e-12 4.54505e-12 4.56116e-12 4.54374e-12 -1.92427e-11 -1.91836e-11 4.54374e-12 4.54505e-12 -1.91836e-11 -1.91785e-11 -2.69454e-11 -2.14782e-11 5.09269e-11 7.13069e-11 -2.14782e-11 -1.62659e-11 7.13069e-11 6.84793e-11 5.09269e-11 7.13069e-11 -3.1331e-10 -2.6103e-10 7.13069e-11 6.84793e-11 -2.6103e-10 -2.56662e-10 -1.62659e-11 -1.85025e-11 6.84793e-11 7.17676e-11 -1.85025e-11 -1.98039e-11 7.17676e-11 7.52497e-11 6.84793e-11 7.17676e-11 -2.56662e-10 -2.60937e-10 7.17676e-11 7.52497e-11 -2.60937e-10 -2.76503e-10 -3.1331e-10 -2.6103e-10 3.76533e-10 6.86335e-10 -2.6103e-10 -2.56662e-10 6.86335e-10 9.32692e-10 3.76533e-10 6.86335e-10 -2.71339e-09 -1.95257e-09 6.86335e-10 9.32692e-10 -1.95257e-09 -2.81138e-09 -2.56662e-10 -2.60937e-10 9.32692e-10 8.73826e-10 -2.60937e-10 -2.76503e-10 8.73826e-10 8.9595e-10 9.32692e-10 8.73826e-10 -2.81138e-09 -2.61978e-09 8.73826e-10 8.9595e-10 -2.61978e-09 -2.69785e-09 -1.98039e-11 -1.8916e-11 7.52497e-11 7.30546e-11 -1.8916e-11 -1.92427e-11 7.30546e-11 7.37025e-11 7.52497e-11 7.30546e-11 -2.76503e-10 -2.68988e-10 7.30546e-11 7.37025e-11 -2.68988e-10 -2.70996e-10 -1.92427e-11 -1.91836e-11 7.37025e-11 7.36192e-11 -1.91836e-11 -1.91785e-11 7.36192e-11 7.36051e-11 7.37025e-11 7.36192e-11 -2.70996e-10 -2.70907e-10 7.36192e-11 7.36051e-11 -2.70907e-10 -2.70764e-10 -2.76503e-10 -2.68988e-10 8.9595e-10 8.85456e-10 -2.68988e-10 -2.70996e-10 8.85456e-10 8.8677e-10 8.9595e-10 8.85456e-10 -2.69785e-09 -2.67767e-09 8.85456e-10 8.8677e-10 -2.67767e-09 -2.67726e-09 -2.70996e-10 -2.70907e-10 8.8677e-10 8.86916e-10 -2.70907e-10 -2.70764e-10 8.86916e-10 8.86813e-10 8.8677e-10 8.86916e-10 -2.67726e-09 -2.67979e-09 8.86916e-10 8.86813e-10 -2.67979e-09 -2.67874e-09 -3.08336e-14 -3.07692e-14 1.98053e-13 1.97962e-13 -3.07692e-14 -3.07714e-14 1.97962e-13 1.97954e-13 1.98053e-13 1.97962e-13 -1.01188e-12 -1.01218e-12 1.97962e-13 1.97954e-13 -1.01218e-12 -1.01183e-12 -3.07714e-14 -3.07802e-14 1.97954e-13 1.97976e-13 -3.07802e-14 -3.07766e-14 1.97976e-13 1.97949e-13 1.97954e-13 1.97976e-13 -1.01183e-12 -1.01201e-12 1.97976e-13 1.97949e-13 -1.01201e-12 -1.01194e-12 -1.01188e-12 -1.01218e-12 4.54505e-12 4.546e-12 -1.01218e-12 -1.01183e-12 4.546e-12 4.54535e-12 4.54505e-12 4.546e-12 -1.91785e-11 -1.91878e-11 4.546e-12 4.54535e-12 -1.91878e-11 -1.91832e-11 -1.01183e-12 -1.01201e-12 4.54535e-12 4.54562e-12 -1.01201e-12 -1.01194e-12 4.54562e-12 4.54553e-12 4.54535e-12 4.54562e-12 -1.91832e-11 -1.91848e-11 4.54562e-12 4.54553e-12 -1.91848e-11 -1.91844e-11 -3.07766e-14 -3.07761e-14 1.97949e-13 1.97972e-13 -3.07761e-14 -3.06493e-14 1.97972e-13 1.98241e-13 1.97949e-13 1.97972e-13 -1.01194e-12 -1.01198e-12 1.97972e-13 1.98241e-13 -1.01198e-12 -1.01194e-12 -3.06493e-14 -3.13724e-14 1.98241e-13 1.95891e-13 -3.13724e-14 -3.92572e-14 1.95891e-13 1.98979e-13 1.98241e-13 1.95891e-13 -1.01194e-12 -1.01192e-12 1.95891e-13 1.98979e-13 -1.01192e-12 -1.01347e-12 -1.01194e-12 -1.01198e-12 4.54553e-12 4.54556e-12 -1.01198e-12 -1.01194e-12 4.54556e-12 4.54553e-12 4.54553e-12 4.54556e-12 -1.91844e-11 -1.91844e-11 4.54556e-12 4.54553e-12 -1.91844e-11 -1.91844e-11 -1.01194e-12 -1.01192e-12 4.54553e-12 4.54551e-12 -1.01192e-12 -1.01347e-12 4.54551e-12 4.54541e-12 4.54553e-12 4.54551e-12 -1.91844e-11 -1.91844e-11 4.54551e-12 4.54541e-12 -1.91844e-11 -1.91844e-11 -1.91785e-11 -1.91878e-11 7.36051e-11 7.3615e-11 -1.91878e-11 -1.91832e-11 7.3615e-11 7.3613e-11 7.36051e-11 7.3615e-11 -2.70764e-10 -2.70836e-10 7.3615e-11 7.3613e-11 -2.70836e-10 -2.70817e-10 -1.91832e-11 -1.91848e-11 7.3613e-11 7.36127e-11 -1.91848e-11 -1.91844e-11 7.36127e-11 7.36131e-11 7.3613e-11 7.36127e-11 -2.70817e-10 -2.70818e-10 7.36127e-11 7.36131e-11 -2.70818e-10 -2.7082e-10 -2.70764e-10 -2.70836e-10 8.86813e-10 8.86766e-10 -2.70836e-10 -2.70817e-10 8.86766e-10 8.86826e-10 8.86813e-10 8.86766e-10 -2.67874e-09 -2.67889e-09 8.86766e-10 8.86826e-10 -2.67889e-09 -2.67897e-09 -2.70817e-10 -2.70818e-10 8.86826e-10 8.86792e-10 -2.70818e-10 -2.7082e-10 8.86792e-10 8.86806e-10 8.86826e-10 8.86792e-10 -2.67897e-09 -2.67889e-09 8.86792e-10 8.86806e-10 -2.67889e-09 -2.67893e-09 -1.91844e-11 -1.91844e-11 7.36131e-11 7.36129e-11 -1.91844e-11 -1.91844e-11 7.36129e-11 7.3613e-11 7.36131e-11 7.36129e-11 -2.7082e-10 -2.70819e-10 7.36129e-11 7.3613e-11 -2.70819e-10 -2.70819e-10 -1.91844e-11 -1.91844e-11 7.3613e-11 7.3613e-11 -1.91844e-11 -1.91844e-11 7.3613e-11 7.36129e-11 7.3613e-11 7.3613e-11 -2.70819e-10 -2.70819e-10 7.3613e-11 7.36129e-11 -2.70819e-10 -2.70819e-10 -2.7082e-10 -2.70819e-10 8.86806e-10 8.86801e-10 -2.70819e-10 -2.70819e-10 8.86801e-10 8.86803e-10 8.86806e-10 8.86801e-10 -2.67893e-09 -2.67892e-09 8.86801e-10 8.86803e-10 -2.67892e-09 -2.67892e-09 -2.70819e-10 -2.70819e-10 8.86803e-10 8.86802e-10 -2.70819e-10 -2.70819e-10 8.86802e-10 8.86802e-10 8.86803e-10 8.86802e-10 -2.67892e-09 -2.67892e-09 8.86802e-10 8.86802e-10 -2.67892e-09 -2.67892e-09 -2.71339e-09 -1.95257e-09 -2.69956e-09 1.67258e-09 -1.95257e-09 -2.81138e-09 1.67258e-09 7.70941e-09 -2.69956e-09 1.67258e-09 -9.77586e-09 7.51027e-09 1.67258e-09 7.70941e-09 7.51027e-09 -9.37745e-09 -2.81138e-09 -2.61978e-09 7.70941e-09 6.41826e-09 -2.61978e-09 -2.69785e-09 6.41826e-09 6.21779e-09 7.70941e-09 6.41826e-09 -9.37745e-09 -8.52023e-09 6.41826e-09 6.21779e-09 -8.52023e-09 -7.50797e-09 -9.77586e-09 7.51027e-09 -1.48481e-07 -1.03792e-07 7.51027e-09 -9.37745e-09 -1.03792e-07 -2.96532e-08 -1.48481e-07 -1.03792e-07 1.83229e-07 4.86972e-07 -1.03792e-07 -2.96532e-08 4.86972e-07 3.78995e-07 -9.37745e-09 -8.52023e-09 -2.96532e-08 -3.02084e-08 -8.52023e-09 -7.50797e-09 -3.02084e-08 -3.81033e-08 -2.96532e-08 -3.02084e-08 3.78995e-07 3.39121e-07 -3.02084e-08 -3.81033e-08 3.39121e-07 3.50016e-07 -2.69785e-09 -2.67767e-09 6.21779e-09 6.30535e-09 -2.67767e-09 -2.67726e-09 6.30535e-09 6.27448e-09 6.21779e-09 6.30535e-09 -7.50797e-09 -7.83759e-09 6.30535e-09 6.27448e-09 -7.83759e-09 -7.79101e-09 -2.67726e-09 -2.67979e-09 6.27448e-09 6.27397e-09 -2.67979e-09 -2.67874e-09 6.27397e-09 6.27756e-09 6.27448e-09 6.27397e-09 -7.79101e-09 -7.79166e-09 6.27397e-09 6.27756e-09 -7.79166e-09 -7.7953e-09 -7.50797e-09 -7.83759e-09 -3.81033e-08 -3.67062e-08 -7.83759e-09 -7.79101e-09 -3.67062e-08 -3.6484e-08 -3.81033e-08 -3.67062e-08 3.50016e-07 3.51298e-07 -3.67062e-08 -3.6484e-08 3.51298e-07 3.49828e-07 -7.79101e-09 -7.79166e-09 -3.6484e-08 -3.67534e-08 -7.79166e-09 -7.7953e-09 -3.67534e-08 -3.66469e-08 -3.6484e-08 -3.67534e-08 3.49828e-07 3.50307e-07 -3.67534e-08 -3.66469e-08 3.50307e-07 3.50229e-07 1.83229e-07 4.86972e-07 -2.66601e-06 -2.03544e-06 4.86972e-07 3.78995e-07 -2.03544e-06 -1.83936e-06 -2.66601e-06 -2.03544e-06 2.23257e-06 3.38265e-06 -2.03544e-06 -1.83936e-06 3.38265e-06 6.28965e-06 3.78995e-07 3.39121e-07 -1.83936e-06 -1.58522e-06 3.39121e-07 3.50016e-07 -1.58522e-06 -1.67411e-06 -1.83936e-06 -1.58522e-06 6.28965e-06 6.1652e-06 -1.58522e-06 -1.67411e-06 6.1652e-06 5.90276e-06 2.23257e-06 3.38265e-06 -2.98608e-05 1.23975e-06 3.38265e-06 6.28965e-06 1.23975e-06 1.47126e-06 -2.98608e-05 1.23975e-06 -0.00013 -0.00013 1.23975e-06 1.47126e-06 -0.00013 -0.00013 6.28965e-06 6.1652e-06 1.47126e-06 5.03343e-07 6.1652e-06 5.90276e-06 5.03343e-07 6.2462e-07 1.47126e-06 5.03343e-07 -0.00013 -0.00013 5.03343e-07 6.2462e-07 -0.00013 -0.00013 3.50016e-07 3.51298e-07 -1.67411e-06 -1.67917e-06 3.51298e-07 3.49828e-07 -1.67917e-06 -1.66904e-06 -1.67411e-06 -1.67917e-06 5.90276e-06 5.99363e-06 -1.67917e-06 -1.66904e-06 5.99363e-06 5.97534e-06 3.49828e-07 3.50307e-07 -1.66904e-06 -1.67314e-06 3.50307e-07 3.50229e-07 -1.67314e-06 -1.6721e-06 -1.66904e-06 -1.67314e-06 5.97534e-06 5.97648e-06 -1.67314e-06 -1.6721e-06 5.97648e-06 5.97733e-06 5.90276e-06 5.99363e-06 6.2462e-07 6.44801e-07 5.99363e-06 5.97534e-06 6.44801e-07 6.27734e-07 6.2462e-07 6.44801e-07 -0.00013 -0.00013 6.44801e-07 6.27734e-07 -0.00013 -0.00013 5.97534e-06 5.97648e-06 6.27734e-07 6.3368e-07 5.97648e-06 5.97733e-06 6.3368e-07 6.32216e-07 6.27734e-07 6.3368e-07 -0.00013 -0.00013 6.3368e-07 6.32216e-07 -0.00013 -0.00013 -2.67874e-09 -2.67889e-09 6.27756e-09 6.27532e-09 -2.67889e-09 -2.67897e-09 6.27532e-09 6.27629e-09 6.27756e-09 6.27532e-09 -7.7953e-09 -7.79337e-09 6.27532e-09 6.27629e-09 -7.79337e-09 -7.79417e-09 -2.67897e-09 -2.67889e-09 6.27629e-09 6.27595e-09 -2.67889e-09 -2.67893e-09 6.27595e-09 6.27605e-09 6.27629e-09 6.27595e-09 -7.79417e-09 -7.79387e-09 6.27595e-09 6.27605e-09 -7.79387e-09 -7.79398e-09 -7.7953e-09 -7.79337e-09 -3.66469e-08 -3.66744e-08 -7.79337e-09 -7.79417e-09 -3.66744e-08 -3.66701e-08 -3.66469e-08 -3.66744e-08 3.50229e-07 3.50222e-07 -3.66744e-08 -3.66701e-08 3.50222e-07 3.50233e-07 -7.79417e-09 -7.79387e-09 -3.66701e-08 -3.66699e-08 -7.79387e-09 -7.79398e-09 -3.66699e-08 -3.66704e-08 -3.66701e-08 -3.66699e-08 3.50233e-07 3.50228e-07 -3.66699e-08 -3.66704e-08 3.50228e-07 3.5023e-07 -2.67893e-09 -2.67892e-09 6.27605e-09 6.27603e-09 -2.67892e-09 -2.67892e-09 6.27603e-09 6.27603e-09 6.27605e-09 6.27603e-09 -7.79398e-09 -7.79395e-09 6.27603e-09 6.27603e-09 -7.79395e-09 -7.79395e-09 -2.67892e-09 -2.67892e-09 6.27603e-09 6.27603e-09 -2.67892e-09 -2.67892e-09 6.27603e-09 6.27603e-09 6.27603e-09 6.27603e-09 -7.79395e-09 -7.79395e-09 6.27603e-09 6.27603e-09 -7.79395e-09 -7.79395e-09 -7.79398e-09 -7.79395e-09 -3.66704e-08 -3.66701e-08 -7.79395e-09 -7.79395e-09 -3.66701e-08 -3.66702e-08 -3.66704e-08 -3.66701e-08 3.5023e-07 3.50229e-07 -3.66701e-08 -3.66702e-08 3.50229e-07 3.50229e-07 -7.79395e-09 -7.79395e-09 -3.66702e-08 -3.66702e-08 -7.79395e-09 -7.79395e-09 -3.66702e-08 -3.66702e-08 -3.66702e-08 -3.66702e-08 3.50229e-07 3.50229e-07 -3.66702e-08 -3.66702e-08 3.50229e-07 3.50229e-07 3.50229e-07 3.50222e-07 -1.6721e-06 -1.67226e-06 3.50222e-07 3.50233e-07 -1.67226e-06 -1.67227e-06 -1.6721e-06 -1.67226e-06 5.97733e-06 5.97684e-06 -1.67226e-06 -1.67227e-06 5.97684e-06 5.97701e-06 3.50233e-07 3.50228e-07 -1.67227e-06 -1.67225e-06 3.50228e-07 3.5023e-07 -1.67225e-06 -1.67226e-06 -1.67227e-06 -1.67225e-06 5.97701e-06 5.97697e-06 -1.67225e-06 -1.67226e-06 5.97697e-06 5.97698e-06 5.97733e-06 5.97684e-06 6.32216e-07 6.3247e-07 5.97684e-06 5.97701e-06 6.3247e-07 6.32455e-07 6.32216e-07 6.3247e-07 -0.00013 -0.00013 6.3247e-07 6.32455e-07 -0.00013 -0.00013 5.97701e-06 5.97697e-06 6.32455e-07 6.32444e-07 5.97697e-06 5.97698e-06 6.32444e-07 6.3245e-07 6.32455e-07 6.32444e-07 -0.00013 -0.00013 6.32444e-07 6.3245e-07 -0.00013 -0.00013 3.5023e-07 3.50229e-07 -1.67226e-06 -1.67225e-06 3.50229e-07 3.50229e-07 -1.67225e-06 -1.67225e-06 -1.67226e-06 -1.67225e-06 5.97698e-06 5.97697e-06 -1.67225e-06 -1.67225e-06 5.97697e-06 5.97697e-06 3.50229e-07 3.50229e-07 -1.67225e-06 -1.67225e-06 3.50229e-07 3.50229e-07 -1.67225e-06 -1.67225e-06 -1.67225e-06 -1.67225e-06 5.97697e-06 5.97697e-06 -1.67225e-06 -1.67225e-06 5.97697e-06 5.97697e-06 5.97698e-06 5.97697e-06 6.3245e-07 6.32448e-07 5.97697e-06 5.97697e-06 6.32448e-07 6.32448e-07 6.3245e-07 6.32448e-07 -0.00013 -0.00013 6.32448e-07 6.32448e-07 -0.00013 -0.00013 5.97697e-06 5.97697e-06 6.32448e-07 6.32448e-07 5.97697e-06 5.97697e-06 6.32448e-07 6.32448e-07 6.32448e-07 6.32448e-07 -0.00013 -0.00013 6.32448e-07 6.32448e-07 -0.00013 -0.00013 -3.92572e-14 -5.72196e-14 1.98979e-13 1.99278e-13 -5.72196e-14 -7.03651e-14 1.99278e-13 2.04956e-13 1.98979e-13 1.99278e-13 -1.01347e-12 -1.01149e-12 1.99278e-13 2.04956e-13 -1.01149e-12 -1.01189e-12 -7.03651e-14 -6.57873e-14 2.04956e-13 2.03311e-13 -6.57873e-14 -6.77636e-14 2.03311e-13 2.03609e-13 2.04956e-13 2.03311e-13 -1.01189e-12 -1.01154e-12 2.03311e-13 2.03609e-13 -1.01154e-12 -1.01172e-12 -1.01347e-12 -1.01149e-12 4.54541e-12 4.54452e-12 -1.01149e-12 -1.01189e-12 4.54452e-12 4.54503e-12 4.54541e-12 4.54452e-12 -1.91844e-11 -1.9184e-11 4.54452e-12 4.54503e-12 -1.9184e-11 -1.91842e-11 -1.01189e-12 -1.01154e-12 4.54503e-12 4.54494e-12 -1.01154e-12 -1.01172e-12 4.54494e-12 4.54499e-12 4.54503e-12 4.54494e-12 -1.91842e-11 -1.91841e-11 4.54494e-12 4.54499e-12 -1.91841e-11 -1.91842e-11 -6.77636e-14 -6.72079e-14 2.03609e-13 2.03572e-13 -6.72079e-14 -6.73696e-14 2.03572e-13 2.03616e-13 2.03609e-13 2.03572e-13 -1.01172e-12 -1.01166e-12 2.03572e-13 2.03616e-13 -1.01166e-12 -1.01177e-12 -6.73696e-14 -6.72707e-14 2.03616e-13 2.03496e-13 -6.72707e-14 -6.7435e-14 2.03496e-13 2.03762e-13 2.03616e-13 2.03496e-13 -1.01177e-12 -1.01151e-12 2.03496e-13 2.03762e-13 -1.01151e-12 -1.01207e-12 -1.01172e-12 -1.01166e-12 4.54499e-12 4.54482e-12 -1.01166e-12 -1.01177e-12 4.54482e-12 4.54531e-12 4.54499e-12 4.54482e-12 -1.91842e-11 -1.91839e-11 4.54482e-12 4.54531e-12 -1.91839e-11 -1.91848e-11 -1.01177e-12 -1.01151e-12 4.54531e-12 4.54416e-12 -1.01151e-12 -1.01207e-12 4.54416e-12 4.54659e-12 4.54531e-12 4.54416e-12 -1.91848e-11 -1.91826e-11 4.54416e-12 4.54659e-12 -1.91826e-11 -1.91876e-11 -1.91844e-11 -1.9184e-11 7.36129e-11 7.36128e-11 -1.9184e-11 -1.91842e-11 7.36128e-11 7.36128e-11 7.36129e-11 7.36128e-11 -2.70819e-10 -2.70819e-10 7.36128e-11 7.36128e-11 -2.70819e-10 -2.70819e-10 -1.91842e-11 -1.91841e-11 7.36128e-11 7.36128e-11 -1.91841e-11 -1.91842e-11 7.36128e-11 7.36131e-11 7.36128e-11 7.36128e-11 -2.70819e-10 -2.70819e-10 7.36128e-11 7.36131e-11 -2.70819e-10 -2.70819e-10 -2.70819e-10 -2.70819e-10 8.86802e-10 8.86802e-10 -2.70819e-10 -2.70819e-10 8.86802e-10 8.86802e-10 8.86802e-10 8.86802e-10 -2.67892e-09 -2.67892e-09 8.86802e-10 8.86802e-10 -2.67892e-09 -2.67892e-09 -2.70819e-10 -2.70819e-10 8.86802e-10 8.86802e-10 -2.70819e-10 -2.70819e-10 8.86802e-10 8.86803e-10 8.86802e-10 8.86802e-10 -2.67892e-09 -2.67892e-09 8.86802e-10 8.86803e-10 -2.67892e-09 -2.67892e-09 -1.91842e-11 -1.91839e-11 7.36131e-11 7.3612e-11 -1.91839e-11 -1.91848e-11 7.3612e-11 7.36154e-11 7.36131e-11 7.3612e-11 -2.70819e-10 -2.70819e-10 7.3612e-11 7.36154e-11 -2.70819e-10 -2.70821e-10 -1.91848e-11 -1.91826e-11 7.36154e-11 7.36063e-11 -1.91826e-11 -1.91876e-11 7.36063e-11 7.36282e-11 7.36154e-11 7.36063e-11 -2.70821e-10 -2.70812e-10 7.36063e-11 7.36282e-11 -2.70812e-10 -2.70844e-10 -2.70819e-10 -2.70819e-10 8.86803e-10 8.86799e-10 -2.70819e-10 -2.70821e-10 8.86799e-10 8.86816e-10 8.86803e-10 8.86799e-10 -2.67892e-09 -2.67894e-09 8.86799e-10 8.86816e-10 -2.67894e-09 -2.67889e-09 -2.70821e-10 -2.70812e-10 8.86816e-10 8.86751e-10 -2.70812e-10 -2.70844e-10 8.86751e-10 8.86969e-10 8.86816e-10 8.86751e-10 -2.67889e-09 -2.67895e-09 8.86751e-10 8.86969e-10 -2.67895e-09 -2.67907e-09 -6.7435e-14 -6.70807e-14 2.03762e-13 2.03131e-13 -6.70807e-14 -6.79953e-14 2.03131e-13 2.05057e-13 2.03762e-13 2.03131e-13 -1.01207e-12 -1.01077e-12 2.03131e-13 2.05057e-13 -1.01077e-12 -1.01503e-12 -6.79953e-14 -6.52377e-14 2.05057e-13 1.98702e-13 -6.52377e-14 -7.19908e-14 1.98702e-13 2.14155e-13 2.05057e-13 1.98702e-13 -1.01503e-12 -9.99655e-13 1.98702e-13 2.14155e-13 -9.99655e-13 -1.04026e-12 -1.01207e-12 -1.01077e-12 4.54659e-12 4.54099e-12 -1.01077e-12 -1.01503e-12 4.54099e-12 4.55824e-12 4.54659e-12 4.54099e-12 -1.91876e-11 -1.91754e-11 4.54099e-12 4.55824e-12 -1.91754e-11 -1.92127e-11 -1.01503e-12 -9.99655e-13 4.55824e-12 4.49906e-12 -9.99655e-13 -1.04026e-12 4.49906e-12 4.66112e-12 4.55824e-12 4.49906e-12 -1.92127e-11 -1.90922e-11 4.49906e-12 4.66112e-12 -1.90922e-11 -1.94058e-11 -7.19908e-14 -6.60707e-14 2.14155e-13 1.98065e-13 -6.60707e-14 -3.05e-14 1.98065e-13 1.32854e-13 2.14155e-13 1.98065e-13 -1.04026e-12 -9.99983e-13 1.98065e-13 1.32854e-13 -9.99983e-13 -8.84117e-13 -3.05e-14 -1.48073e-13 1.32854e-13 3.157e-13 -1.48073e-13 -9.46009e-14 3.157e-13 5.14018e-13 1.32854e-13 3.157e-13 -8.84117e-13 -1.22796e-12 3.157e-13 5.14018e-13 -1.22796e-12 -1.00674e-12 -1.04026e-12 -9.99983e-13 4.66112e-12 4.41048e-12 -9.99983e-13 -8.84117e-13 4.41048e-12 4.24205e-12 4.66112e-12 4.41048e-12 -1.94058e-11 -1.89604e-11 4.41048e-12 4.24205e-12 -1.89604e-11 -1.9667e-11 -8.84117e-13 -1.22796e-12 4.24205e-12 5.1252e-12 -1.22796e-12 -1.00674e-12 5.1252e-12 7.07909e-12 4.24205e-12 5.1252e-12 -1.9667e-11 -1.80479e-11 5.1252e-12 7.07909e-12 -1.80479e-11 -1.35768e-11 -1.91876e-11 -1.91754e-11 7.36282e-11 7.35761e-11 -1.91754e-11 -1.92127e-11 7.35761e-11 7.37165e-11 7.36282e-11 7.35761e-11 -2.70844e-10 -2.70744e-10 7.35761e-11 7.37165e-11 -2.70744e-10 -2.71009e-10 -1.92127e-11 -1.90922e-11 7.37165e-11 7.32979e-11 -1.90922e-11 -1.94058e-11 7.32979e-11 7.45207e-11 7.37165e-11 7.32979e-11 -2.71009e-10 -2.70511e-10 7.32979e-11 7.45207e-11 -2.70511e-10 -2.71371e-10 -2.70844e-10 -2.70744e-10 8.86969e-10 8.86329e-10 -2.70744e-10 -2.71009e-10 8.86329e-10 8.87982e-10 8.86969e-10 8.86329e-10 -2.67907e-09 -2.67805e-09 8.86329e-10 8.87982e-10 -2.67805e-09 -2.68148e-09 -2.71009e-10 -2.70511e-10 8.87982e-10 8.84271e-10 -2.70511e-10 -2.71371e-10 8.84271e-10 8.92768e-10 8.87982e-10 8.84271e-10 -2.68148e-09 -2.67566e-09 8.84271e-10 8.92768e-10 -2.67566e-09 -2.67863e-09 -1.94058e-11 -1.89604e-11 7.45207e-11 7.15361e-11 -1.89604e-11 -1.9667e-11 7.15361e-11 7.68153e-11 7.45207e-11 7.15361e-11 -2.71371e-10 -2.6825e-10 7.15361e-11 7.68153e-11 -2.6825e-10 -2.9867e-10 -1.9667e-11 -1.80479e-11 7.68153e-11 6.76386e-11 -1.80479e-11 -1.35768e-11 6.76386e-11 8.62235e-11 7.68153e-11 6.76386e-11 -2.9867e-10 -2.00755e-10 6.76386e-11 8.62235e-11 -2.00755e-10 -1.27557e-10 -2.71371e-10 -2.6825e-10 8.92768e-10 8.63132e-10 -2.6825e-10 -2.9867e-10 8.63132e-10 9.78921e-10 8.92768e-10 8.63132e-10 -2.67863e-09 -2.65012e-09 8.63132e-10 9.78921e-10 -2.65012e-09 -3.12186e-09 -2.9867e-10 -2.00755e-10 9.78921e-10 6.44938e-10 -2.00755e-10 -1.27557e-10 6.44938e-10 8.58319e-10 9.78921e-10 6.44938e-10 -3.12186e-09 -1.35897e-09 6.44938e-10 8.58319e-10 -1.35897e-09 -1.80318e-10 -2.67892e-09 -2.67892e-09 6.27603e-09 6.27603e-09 -2.67892e-09 -2.67892e-09 6.27603e-09 6.27603e-09 6.27603e-09 6.27603e-09 -7.79395e-09 -7.79395e-09 6.27603e-09 6.27603e-09 -7.79395e-09 -7.79394e-09 -2.67892e-09 -2.67892e-09 6.27603e-09 6.27603e-09 -2.67892e-09 -2.67892e-09 6.27603e-09 6.27601e-09 6.27603e-09 6.27603e-09 -7.79394e-09 -7.79398e-09 6.27603e-09 6.27601e-09 -7.79398e-09 -7.79387e-09 -7.79395e-09 -7.79395e-09 -3.66702e-08 -3.66702e-08 -7.79395e-09 -7.79394e-09 -3.66702e-08 -3.66702e-08 -3.66702e-08 -3.66702e-08 3.50229e-07 3.50229e-07 -3.66702e-08 -3.66702e-08 3.50229e-07 3.50229e-07 -7.79394e-09 -7.79398e-09 -3.66702e-08 -3.66702e-08 -7.79398e-09 -7.79387e-09 -3.66702e-08 -3.66703e-08 -3.66702e-08 -3.66702e-08 3.50229e-07 3.50229e-07 -3.66702e-08 -3.66703e-08 3.50229e-07 3.50229e-07 -2.67892e-09 -2.67894e-09 6.27601e-09 6.27607e-09 -2.67894e-09 -2.67889e-09 6.27607e-09 6.27599e-09 6.27601e-09 6.27607e-09 -7.79387e-09 -7.79417e-09 6.27607e-09 6.27599e-09 -7.79417e-09 -7.79354e-09 -2