# vtk DataFile Version 3.0
#This file was generated by the deal.II library on 2022/11/2 at 18:43:22
ASCII
DATASET UNSTRUCTURED_GRID

POINTS 4096 double
0 0.5 0
0.03125 0.5 0
0 0.53125 0
0.03125 0.53125 0
0.03125 0.5 0
0.0625 0.5 0
0.03125 0.53125 0
0.0625 0.53125 0
0 0.53125 0
0.03125 0.53125 0
0 0.5625 0
0.03125 0.5625 0
0.03125 0.53125 0
0.0625 0.53125 0
0.03125 0.5625 0
0.0625 0.5625 0
0.0625 0.5 0
0.09375 0.5 0
0.0625 0.53125 0
0.09375 0.53125 0
0.09375 0.5 0
0.125 0.5 0
0.09375 0.53125 0
0.125 0.53125 0
0.0625 0.53125 0
0.09375 0.53125 0
0.0625 0.5625 0
0.09375 0.5625 0
0.09375 0.53125 0
0.125 0.53125 0
0.09375 0.5625 0
0.125 0.5625 0
0 0.5625 0
0.03125 0.5625 0
0 0.59375 0
0.03125 0.59375 0
0.03125 0.5625 0
0.0625 0.5625 0
0.03125 0.59375 0
0.0625 0.59375 0
0 0.59375 0
0.03125 0.59375 0
0 0.625 0
0.03125 0.625 0
0.03125 0.59375 0
0.0625 0.59375 0
0.03125 0.625 0
0.0625 0.625 0
0.0625 0.5625 0
0.09375 0.5625 0
0.0625 0.59375 0
0.09375 0.59375 0
0.09375 0.5625 0
0.125 0.5625 0
0.09375 0.59375 0
0.125 0.59375 0
0.0625 0.59375 0
0.09375 0.59375 0
0.0625 0.625 0
0.09375 0.625 0
0.09375 0.59375 0
0.125 0.59375 0
0.09375 0.625 0
0.125 0.625 0
0.125 0.5 0
0.15625 0.5 0
0.125 0.53125 0
0.15625 0.53125 0
0.15625 0.5 0
0.1875 0.5 0
0.15625 0.53125 0
0.1875 0.53125 0
0.125 0.53125 0
0.15625 0.53125 0
0.125 0.5625 0
0.15625 0.5625 0
0.15625 0.53125 0
0.1875 0.53125 0
0.15625 0.5625 0
0.1875 0.5625 0
0.1875 0.5 0
0.21875 0.5 0
0.1875 0.53125 0
0.21875 0.53125 0
0.21875 0.5 0
0.25 0.5 0
0.21875 0.53125 0
0.25 0.53125 0
0.1875 0.53125 0
0.21875 0.53125 0
0.1875 0.5625 0
0.21875 0.5625 0
0.21875 0.53125 0
0.25 0.53125 0
0.21875 0.5625 0
0.25 0.5625 0
0.125 0.5625 0
0.15625 0.5625 0
0.125 0.59375 0
0.15625 0.59375 0
0.15625 0.5625 0
0.1875 0.5625 0
0.15625 0.59375 0
0.1875 0.59375 0
0.125 0.59375 0
0.15625 0.59375 0
0.125 0.625 0
0.15625 0.625 0
0.15625 0.59375 0
0.1875 0.59375 0
0.15625 0.625 0
0.1875 0.625 0
0.1875 0.5625 0
0.21875 0.5625 0
0.1875 0.59375 0
0.21875 0.59375 0
0.21875 0.5625 0
0.25 0.5625 0
0.21875 0.59375 0
0.25 0.59375 0
0.1875 0.59375 0
0.21875 0.59375 0
0.1875 0.625 0
0.21875 0.625 0
0.21875 0.59375 0
0.25 0.59375 0
0.21875 0.625 0
0.25 0.625 0
0 0.625 0
0.03125 0.625 0
0 0.65625 0
0.03125 0.65625 0
0.03125 0.625 0
0.0625 0.625 0
0.03125 0.65625 0
0.0625 0.65625 0
0 0.65625 0
0.03125 0.65625 0
0 0.6875 0
0.03125 0.6875 0
0.03125 0.65625 0
0.0625 0.65625 0
0.03125 0.6875 0
0.0625 0.6875 0
0.0625 0.625 0
0.09375 0.625 0
0.0625 0.65625 0
0.09375 0.65625 0
0.09375 0.625 0
0.125 0.625 0
0.09375 0.65625 0
0.125 0.65625 0
0.0625 0.65625 0
0.09375 0.65625 0
0.0625 0.6875 0
0.09375 0.6875 0
0.09375 0.65625 0
0.125 0.65625 0
0.09375 0.6875 0
0.125 0.6875 0
0 0.6875 0
0.03125 0.6875 0
0 0.71875 0
0.03125 0.71875 0
0.03125 0.6875 0
0.0625 0.6875 0
0.03125 0.71875 0
0.0625 0.71875 0
0 0.71875 0
0.03125 0.71875 0
0 0.75 0
0.03125 0.75 0
0.03125 0.71875 0
0.0625 0.71875 0
0.03125 0.75 0
0.0625 0.75 0
0.0625 0.6875 0
0.09375 0.6875 0
0.0625 0.71875 0
0.09375 0.71875 0
0.09375 0.6875 0
0.125 0.6875 0
0.09375 0.71875 0
0.125 0.71875 0
0.0625 0.71875 0
0.09375 0.71875 0
0.0625 0.75 0
0.09375 0.75 0
0.09375 0.71875 0
0.125 0.71875 0
0.09375 0.75 0
0.125 0.75 0
0.125 0.625 0
0.15625 0.625 0
0.125 0.65625 0
0.15625 0.65625 0
0.15625 0.625 0
0.1875 0.625 0
0.15625 0.65625 0
0.1875 0.65625 0
0.125 0.65625 0
0.15625 0.65625 0
0.125 0.6875 0
0.15625 0.6875 0
0.15625 0.65625 0
0.1875 0.65625 0
0.15625 0.6875 0
0.1875 0.6875 0
0.1875 0.625 0
0.21875 0.625 0
0.1875 0.65625 0
0.21875 0.65625 0
0.21875 0.625 0
0.25 0.625 0
0.21875 0.65625 0
0.25 0.65625 0
0.1875 0.65625 0
0.21875 0.65625 0
0.1875 0.6875 0
0.21875 0.6875 0
0.21875 0.65625 0
0.25 0.65625 0
0.21875 0.6875 0
0.25 0.6875 0
0.125 0.6875 0
0.15625 0.6875 0
0.125 0.71875 0
0.15625 0.71875 0
0.15625 0.6875 0
0.1875 0.6875 0
0.15625 0.71875 0
0.1875 0.71875 0
0.125 0.71875 0
0.15625 0.71875 0
0.125 0.75 0
0.15625 0.75 0
0.15625 0.71875 0
0.1875 0.71875 0
0.15625 0.75 0
0.1875 0.75 0
0.1875 0.6875 0
0.21875 0.6875 0
0.1875 0.71875 0
0.21875 0.71875 0
0.21875 0.6875 0
0.25 0.6875 0
0.21875 0.71875 0
0.25 0.71875 0
0.1875 0.71875 0
0.21875 0.71875 0
0.1875 0.75 0
0.21875 0.75 0
0.21875 0.71875 0
0.25 0.71875 0
0.21875 0.75 0
0.25 0.75 0
0.25 0.5 0
0.28125 0.5 0
0.25 0.53125 0
0.28125 0.53125 0
0.28125 0.5 0
0.3125 0.5 0
0.28125 0.53125 0
0.3125 0.53125 0
0.25 0.53125 0
0.28125 0.53125 0
0.25 0.5625 0
0.28125 0.5625 0
0.28125 0.53125 0
0.3125 0.53125 0
0.28125 0.5625 0
0.3125 0.5625 0
0.3125 0.5 0
0.34375 0.5 0
0.3125 0.53125 0
0.34375 0.53125 0
0.34375 0.5 0
0.375 0.5 0
0.34375 0.53125 0
0.375 0.53125 0
0.3125 0.53125 0
0.34375 0.53125 0
0.3125 0.5625 0
0.34375 0.5625 0
0.34375 0.53125 0
0.375 0.53125 0
0.34375 0.5625 0
0.375 0.5625 0
0.25 0.5625 0
0.28125 0.5625 0
0.25 0.59375 0
0.28125 0.59375 0
0.28125 0.5625 0
0.3125 0.5625 0
0.28125 0.59375 0
0.3125 0.59375 0
0.25 0.59375 0
0.28125 0.59375 0
0.25 0.625 0
0.28125 0.625 0
0.28125 0.59375 0
0.3125 0.59375 0
0.28125 0.625 0
0.3125 0.625 0
0.3125 0.5625 0
0.34375 0.5625 0
0.3125 0.59375 0
0.34375 0.59375 0
0.34375 0.5625 0
0.375 0.5625 0
0.34375 0.59375 0
0.375 0.59375 0
0.3125 0.59375 0
0.34375 0.59375 0
0.3125 0.625 0
0.34375 0.625 0
0.34375 0.59375 0
0.375 0.59375 0
0.34375 0.625 0
0.375 0.625 0
0.375 0.5 0
0.40625 0.5 0
0.375 0.53125 0
0.40625 0.53125 0
0.40625 0.5 0
0.4375 0.5 0
0.40625 0.53125 0
0.4375 0.53125 0
0.375 0.53125 0
0.40625 0.53125 0
0.375 0.5625 0
0.40625 0.5625 0
0.40625 0.53125 0
0.4375 0.53125 0
0.40625 0.5625 0
0.4375 0.5625 0
0.4375 0.5 0
0.46875 0.5 0
0.4375 0.53125 0
0.46875 0.53125 0
0.46875 0.5 0
0.5 0.5 0
0.46875 0.53125 0
0.5 0.53125 0
0.4375 0.53125 0
0.46875 0.53125 0
0.4375 0.5625 0
0.46875 0.5625 0
0.46875 0.53125 0
0.5 0.53125 0
0.46875 0.5625 0
0.5 0.5625 0
0.375 0.5625 0
0.40625 0.5625 0
0.375 0.59375 0
0.40625 0.59375 0
0.40625 0.5625 0
0.4375 0.5625 0
0.40625 0.59375 0
0.4375 0.59375 0
0.375 0.59375 0
0.40625 0.59375 0
0.375 0.625 0
0.40625 0.625 0
0.40625 0.59375 0
0.4375 0.59375 0
0.40625 0.625 0
0.4375 0.625 0
0.4375 0.5625 0
0.46875 0.5625 0
0.4375 0.59375 0
0.46875 0.59375 0
0.46875 0.5625 0
0.5 0.5625 0
0.46875 0.59375 0
0.5 0.59375 0
0.4375 0.59375 0
0.46875 0.59375 0
0.4375 0.625 0
0.46875 0.625 0
0.46875 0.59375 0
0.5 0.59375 0
0.46875 0.625 0
0.5 0.625 0
0.25 0.625 0
0.28125 0.625 0
0.25 0.65625 0
0.28125 0.65625 0
0.28125 0.625 0
0.3125 0.625 0
0.28125 0.65625 0
0.3125 0.65625 0
0.25 0.65625 0
0.28125 0.65625 0
0.25 0.6875 0
0.28125 0.6875 0
0.28125 0.65625 0
0.3125 0.65625 0
0.28125 0.6875 0
0.3125 0.6875 0
0.3125 0.625 0
0.34375 0.625 0
0.3125 0.65625 0
0.34375 0.65625 0
0.34375 0.625 0
0.375 0.625 0
0.34375 0.65625 0
0.375 0.65625 0
0.3125 0.65625 0
0.34375 0.65625 0
0.3125 0.6875 0
0.34375 0.6875 0
0.34375 0.65625 0
0.375 0.65625 0
0.34375 0.6875 0
0.375 0.6875 0
0.25 0.6875 0
0.28125 0.6875 0
0.25 0.71875 0
0.28125 0.71875 0
0.28125 0.6875 0
0.3125 0.6875 0
0.28125 0.71875 0
0.3125 0.71875 0
0.25 0.71875 0
0.28125 0.71875 0
0.25 0.75 0
0.28125 0.75 0
0.28125 0.71875 0
0.3125 0.71875 0
0.28125 0.75 0
0.3125 0.75 0
0.3125 0.6875 0
0.34375 0.6875 0
0.3125 0.71875 0
0.34375 0.71875 0
0.34375 0.6875 0
0.375 0.6875 0
0.34375 0.71875 0
0.375 0.71875 0
0.3125 0.71875 0
0.34375 0.71875 0
0.3125 0.75 0
0.34375 0.75 0
0.34375 0.71875 0
0.375 0.71875 0
0.34375 0.75 0
0.375 0.75 0
0.375 0.625 0
0.40625 0.625 0
0.375 0.65625 0
0.40625 0.65625 0
0.40625 0.625 0
0.4375 0.625 0
0.40625 0.65625 0
0.4375 0.65625 0
0.375 0.65625 0
0.40625 0.65625 0
0.375 0.6875 0
0.40625 0.6875 0
0.40625 0.65625 0
0.4375 0.65625 0
0.40625 0.6875 0
0.4375 0.6875 0
0.4375 0.625 0
0.46875 0.625 0
0.4375 0.65625 0
0.46875 0.65625 0
0.46875 0.625 0
0.5 0.625 0
0.46875 0.65625 0
0.5 0.65625 0
0.4375 0.65625 0
0.46875 0.65625 0
0.4375 0.6875 0
0.46875 0.6875 0
0.46875 0.65625 0
0.5 0.65625 0
0.46875 0.6875 0
0.5 0.6875 0
0.375 0.6875 0
0.40625 0.6875 0
0.375 0.71875 0
0.40625 0.71875 0
0.40625 0.6875 0
0.4375 0.6875 0
0.40625 0.71875 0
0.4375 0.71875 0
0.375 0.71875 0
0.40625 0.71875 0
0.375 0.75 0
0.40625 0.75 0
0.40625 0.71875 0
0.4375 0.71875 0
0.40625 0.75 0
0.4375 0.75 0
0.4375 0.6875 0
0.46875 0.6875 0
0.4375 0.71875 0
0.46875 0.71875 0
0.46875 0.6875 0
0.5 0.6875 0
0.46875 0.71875 0
0.5 0.71875 0
0.4375 0.71875 0
0.46875 0.71875 0
0.4375 0.75 0
0.46875 0.75 0
0.46875 0.71875 0
0.5 0.71875 0
0.46875 0.75 0
0.5 0.75 0
0 0.75 0
0.03125 0.75 0
0 0.78125 0
0.03125 0.78125 0
0.03125 0.75 0
0.0625 0.75 0
0.03125 0.78125 0
0.0625 0.78125 0
0 0.78125 0
0.03125 0.78125 0
0 0.8125 0
0.03125 0.8125 0
0.03125 0.78125 0
0.0625 0.78125 0
0.03125 0.8125 0
0.0625 0.8125 0
0.0625 0.75 0
0.09375 0.75 0
0.0625 0.78125 0
0.09375 0.78125 0
0.09375 0.75 0
0.125 0.75 0
0.09375 0.78125 0
0.125 0.78125 0
0.0625 0.78125 0
0.09375 0.78125 0
0.0625 0.8125 0
0.09375 0.8125 0
0.09375 0.78125 0
0.125 0.78125 0
0.09375 0.8125 0
0.125 0.8125 0
0 0.8125 0
0.03125 0.8125 0
0 0.84375 0
0.03125 0.84375 0
0.03125 0.8125 0
0.0625 0.8125 0
0.03125 0.84375 0
0.0625 0.84375 0
0 0.84375 0
0.03125 0.84375 0
0 0.875 0
0.03125 0.875 0
0.03125 0.84375 0
0.0625 0.84375 0
0.03125 0.875 0
0.0625 0.875 0
0.0625 0.8125 0
0.09375 0.8125 0
0.0625 0.84375 0
0.09375 0.84375 0
0.09375 0.8125 0
0.125 0.8125 0
0.09375 0.84375 0
0.125 0.84375 0
0.0625 0.84375 0
0.09375 0.84375 0
0.0625 0.875 0
0.09375 0.875 0
0.09375 0.84375 0
0.125 0.84375 0
0.09375 0.875 0
0.125 0.875 0
0.125 0.75 0
0.15625 0.75 0
0.125 0.78125 0
0.15625 0.78125 0
0.15625 0.75 0
0.1875 0.75 0
0.15625 0.78125 0
0.1875 0.78125 0
0.125 0.78125 0
0.15625 0.78125 0
0.125 0.8125 0
0.15625 0.8125 0
0.15625 0.78125 0
0.1875 0.78125 0
0.15625 0.8125 0
0.1875 0.8125 0
0.1875 0.75 0
0.21875 0.75 0
0.1875 0.78125 0
0.21875 0.78125 0
0.21875 0.75 0
0.25 0.75 0
0.21875 0.78125 0
0.25 0.78125 0
0.1875 0.78125 0
0.21875 0.78125 0
0.1875 0.8125 0
0.21875 0.8125 0
0.21875 0.78125 0
0.25 0.78125 0
0.21875 0.8125 0
0.25 0.8125 0
0.125 0.8125 0
0.15625 0.8125 0
0.125 0.84375 0
0.15625 0.84375 0
0.15625 0.8125 0
[...]
POINT_DATA 4096
SCALARS x_dis double 1
LOOKUP_TABLE default
2.27438e-13 2.9832e-13 -1.53574e-12 -1.15098e-12 2.9832e-13 2.5271e-13 -1.15098e-12 -9.88806e-13 -1.53574e-12 -1.15098e-12 1.99775e-12 2.97059e-12 -1.15098e-12 -9.88806e-13 2.97059e-12 3.73351e-12 2.5271e-13 2.86436e-13 -9.88806e-13 -1.11491e-12 2.86436e-13 3.2491e-13 -1.11491e-12 -1.25166e-12 -9.88806e-13 -1.11491e-12 3.73351e-12 4.24206e-12 -1.11491e-12 -1.25166e-12 4.24206e-12 4.61656e-12 1.99775e-12 2.97059e-12 -1.45536e-11 -1.04444e-11 2.97059e-12 3.73351e-12 -1.04444e-11 -1.26256e-11 -1.45536e-11 -1.04444e-11 -2.51367e-12 1.63538e-11 -1.04444e-11 -1.26256e-11 1.63538e-11 4.08913e-11 3.73351e-12 4.24206e-12 -1.26256e-11 -1.42086e-11 4.24206e-12 4.61656e-12 -1.42086e-11 -1.52414e-11 -1.26256e-11 -1.42086e-11 4.08913e-11 4.46365e-11 -1.42086e-11 -1.52414e-11 4.46365e-11 4.60458e-11 3.2491e-13 3.03824e-13 -1.25166e-12 -1.15966e-12 3.03824e-13 3.0451e-13 -1.15966e-12 -1.17658e-12 -1.25166e-12 -1.15966e-12 4.61656e-12 4.33063e-12 -1.15966e-12 -1.17658e-12 4.33063e-12 4.36796e-12 3.0451e-13 3.0646e-13 -1.17658e-12 -1.18029e-12 3.0646e-13 3.05627e-13 -1.18029e-12 -1.17674e-12 -1.17658e-12 -1.18029e-12 4.36796e-12 4.38516e-12 -1.18029e-12 -1.17674e-12 4.38516e-12 4.3742e-12 4.61656e-12 4.33063e-12 -1.52414e-11 -1.43189e-11 4.33063e-12 4.36796e-12 -1.43189e-11 -1.45223e-11 -1.52414e-11 -1.43189e-11 4.60458e-11 4.39425e-11 -1.43189e-11 -1.45223e-11 4.39425e-11 4.43664e-11 4.36796e-12 4.38516e-12 -1.45223e-11 -1.45503e-11 4.38516e-12 4.3742e-12 -1.45503e-11 -1.45176e-11 -1.45223e-11 -1.45503e-11 4.43664e-11 4.4383e-11 -1.45503e-11 -1.45176e-11 4.4383e-11 4.43445e-11 -2.51367e-12 1.63538e-11 -8.10171e-11 -4.15064e-11 1.63538e-11 4.08913e-11 -4.15064e-11 -1.0937e-10 -8.10171e-11 -4.15064e-11 -5.17919e-10 -1.64076e-10 -4.15064e-11 -1.0937e-10 -1.64076e-10 2.45577e-10 4.08913e-11 4.46365e-11 -1.0937e-10 -1.19113e-10 4.46365e-11 4.60458e-11 -1.19113e-10 -1.16629e-10 -1.0937e-10 -1.19113e-10 2.45577e-10 2.31358e-10 -1.19113e-10 -1.16629e-10 2.31358e-10 2.00784e-10 -5.17919e-10 -1.64076e-10 4.2563e-10 8.29131e-10 -1.64076e-10 2.45577e-10 8.29131e-10 -1.13648e-10 4.2563e-10 8.29131e-10 -1.14257e-08 -7.16457e-09 8.29131e-10 -1.13648e-10 -7.16457e-09 -2.62479e-09 2.45577e-10 2.31358e-10 -1.13648e-10 -4.75822e-11 2.31358e-10 2.00784e-10 -4.75822e-11 1.19592e-10 -1.13648e-10 -4.75822e-11 -2.62479e-09 -2.88173e-09 -4.75822e-11 1.19592e-10 -2.88173e-09 -3.69152e-09 4.60458e-11 4.39425e-11 -1.16629e-10 -1.13484e-10 4.39425e-11 4.43664e-11 -1.13484e-10 -1.14497e-10 -1.16629e-10 -1.13484e-10 2.00784e-10 1.99008e-10 -1.13484e-10 -1.14497e-10 1.99008e-10 1.99973e-10 4.43664e-11 4.4383e-11 -1.14497e-10 -1.14456e-10 4.4383e-11 4.43445e-11 -1.14456e-10 -1.14374e-10 -1.14497e-10 -1.14456e-10 1.99973e-10 1.99371e-10 -1.14456e-10 -1.14374e-10 1.99371e-10 1.99496e-10 2.00784e-10 1.99008e-10 1.19592e-10 9.02384e-11 1.99008e-10 1.99973e-10 9.02384e-11 8.99012e-11 1.19592e-10 9.02384e-11 -3.69152e-09 -3.57835e-09 9.02384e-11 8.99012e-11 -3.57835e-09 -3.56783e-09 1.99973e-10 1.99371e-10 8.99012e-11 9.07868e-11 1.99371e-10 1.99496e-10 9.07868e-11 9.11088e-11 8.99012e-11 9.07868e-11 -3.56783e-09 -3.58046e-09 9.07868e-11 9.11088e-11 -3.58046e-09 -3.58007e-09 3.05627e-13 3.05773e-13 -1.17674e-12 -1.17802e-12 3.05773e-13 3.05777e-13 -1.17802e-12 -1.17771e-12 -1.17674e-12 -1.17802e-12 4.3742e-12 4.37717e-12 -1.17802e-12 -1.17771e-12 4.37717e-12 4.37666e-12 3.05777e-13 3.05769e-13 -1.17771e-12 -1.17777e-12 3.05769e-13 3.05751e-13 -1.17777e-12 -1.17775e-12 -1.17771e-12 -1.17777e-12 4.37666e-12 4.37676e-12 -1.17777e-12 -1.17775e-12 4.37676e-12 4.37668e-12 4.3742e-12 4.37717e-12 -1.45176e-11 -1.4529e-11 4.37717e-12 4.37666e-12 -1.4529e-11 -1.45264e-11 -1.45176e-11 -1.4529e-11 4.43445e-11 4.43565e-11 -1.4529e-11 -1.45264e-11 4.43565e-11 4.43528e-11 4.37666e-12 4.37676e-12 -1.45264e-11 -1.4527e-11 4.37676e-12 4.37668e-12 -1.4527e-11 -1.45268e-11 -1.45264e-11 -1.4527e-11 4.43528e-11 4.4355e-11 -1.4527e-11 -1.45268e-11 4.4355e-11 4.43536e-11 3.05751e-13 3.05948e-13 -1.17775e-12 -1.1777e-12 3.05948e-13 3.05055e-13 -1.1777e-12 -1.17767e-12 -1.17775e-12 -1.1777e-12 4.37668e-12 4.37693e-12 -1.1777e-12 -1.17767e-12 4.37693e-12 4.37601e-12 3.05055e-13 3.05026e-13 -1.17767e-12 -1.1832e-12 3.05026e-13 2.72576e-13 -1.1832e-12 -1.18247e-12 -1.17767e-12 -1.1832e-12 4.37601e-12 4.37709e-12 -1.1832e-12 -1.18247e-12 4.37709e-12 4.37383e-12 4.37668e-12 4.37693e-12 -1.45268e-11 -1.45269e-11 4.37693e-12 4.37601e-12 -1.45269e-11 -1.45266e-11 -1.45268e-11 -1.45269e-11 4.43536e-11 4.43543e-11 -1.45269e-11 -1.45266e-11 4.43543e-11 4.43539e-11 4.37601e-12 4.37709e-12 -1.45266e-11 -1.45273e-11 4.37709e-12 4.37383e-12 -1.45273e-11 -1.45275e-11 -1.45266e-11 -1.45273e-11 4.43539e-11 4.43542e-11 -1.45273e-11 -1.45275e-11 4.43542e-11 4.43541e-11 4.43445e-11 4.43565e-11 -1.14374e-10 -1.14402e-10 4.43565e-11 4.43528e-11 -1.14402e-10 -1.14398e-10 -1.14374e-10 -1.14402e-10 1.99496e-10 1.99464e-10 -1.14402e-10 -1.14398e-10 1.99464e-10 1.99463e-10 4.43528e-11 4.4355e-11 -1.14398e-10 -1.14399e-10 4.4355e-11 4.43536e-11 -1.14399e-10 -1.14398e-10 -1.14398e-10 -1.14399e-10 1.99463e-10 1.99472e-10 -1.14399e-10 -1.14398e-10 1.99472e-10 1.99465e-10 1.99496e-10 1.99464e-10 9.11088e-11 9.09325e-11 1.99464e-10 1.99463e-10 9.09325e-11 9.09205e-11 9.11088e-11 9.09325e-11 -3.58007e-09 -3.57871e-09 9.09325e-11 9.09205e-11 -3.57871e-09 -3.57936e-09 1.99463e-10 1.99472e-10 9.09205e-11 9.09616e-11 1.99472e-10 1.99465e-10 9.09616e-11 9.09398e-11 9.09205e-11 9.09616e-11 -3.57936e-09 -3.57921e-09 9.09616e-11 9.09398e-11 -3.57921e-09 -3.57921e-09 4.43536e-11 4.43543e-11 -1.14398e-10 -1.14398e-10 4.43543e-11 4.43539e-11 -1.14398e-10 -1.14398e-10 -1.14398e-10 -1.14398e-10 1.99465e-10 1.99469e-10 -1.14398e-10 -1.14398e-10 1.99469e-10 1.99467e-10 4.43539e-11 4.43542e-11 -1.14398e-10 -1.14398e-10 4.43542e-11 4.43541e-11 -1.14398e-10 -1.14398e-10 -1.14398e-10 -1.14398e-10 1.99467e-10 1.99468e-10 -1.14398e-10 -1.14398e-10 1.99468e-10 1.99467e-10 1.99465e-10 1.99469e-10 9.09398e-11 9.09466e-11 1.99469e-10 1.99467e-10 9.09466e-11 9.09455e-11 9.09398e-11 9.09466e-11 -3.57921e-09 -3.57923e-09 9.09466e-11 9.09455e-11 -3.57923e-09 -3.57922e-09 1.99467e-10 1.99468e-10 9.09455e-11 9.09453e-11 1.99468e-10 1.99467e-10 9.09453e-11 9.09455e-11 9.09455e-11 9.09453e-11 -3.57922e-09 -3.57922e-09 9.09453e-11 9.09455e-11 -3.57922e-09 -3.57922e-09 -1.14257e-08 -7.16457e-09 1.62611e-08 2.31772e-08 -7.16457e-09 -2.62479e-09 2.31772e-08 1.78842e-08 1.62611e-08 2.31772e-08 -1.47983e-07 -1.15509e-07 2.31772e-08 1.78842e-08 -1.15509e-07 -9.30472e-08 -2.62479e-09 -2.88173e-09 1.78842e-08 1.83549e-08 -2.88173e-09 -3.69152e-09 1.83549e-08 2.00419e-08 1.78842e-08 1.83549e-08 -9.30472e-08 -8.69817e-08 1.83549e-08 2.00419e-08 -8.69817e-08 -9.4133e-08 -1.47983e-07 -1.15509e-07 8.27651e-08 1.98276e-07 -1.15509e-07 -9.30472e-08 1.98276e-07 3.2335e-07 8.27651e-08 1.98276e-07 -1.01931e-06 -4.21453e-07 1.98276e-07 3.2335e-07 -4.21453e-07 -7.44857e-07 -9.30472e-08 -8.69817e-08 3.2335e-07 3.0668e-07 -8.69817e-08 -9.4133e-08 3.0668e-07 3.02191e-07 3.2335e-07 3.0668e-07 -7.44857e-07 -7.42855e-07 3.0668e-07 3.02191e-07 -7.42855e-07 -7.34868e-07 -3.69152e-09 -3.57835e-09 2.00419e-08 1.96862e-08 -3.57835e-09 -3.56783e-09 1.96862e-08 1.96724e-08 2.00419e-08 1.96862e-08 -9.4133e-08 -9.40042e-08 1.96862e-08 1.96724e-08 -9.40042e-08 -9.36588e-08 -3.56783e-09 -3.58046e-09 1.96724e-08 1.96663e-08 -3.58046e-09 -3.58007e-09 1.96663e-08 1.96795e-08 1.96724e-08 1.96663e-08 -9.36588e-08 -9.36912e-08 1.96663e-08 1.96795e-08 -9.36912e-08 -9.37571e-08 -9.4133e-08 -9.40042e-08 3.02191e-07 3.01656e-07 -9.40042e-08 -9.36588e-08 3.01656e-07 3.02305e-07 3.02191e-07 3.01656e-07 -7.34868e-07 -7.41369e-07 3.01656e-07 3.02305e-07 -7.41369e-07 -7.41113e-07 -9.36588e-08 -9.36912e-08 3.02305e-07 3.01923e-07 -9.36912e-08 -9.37571e-08 3.01923e-07 3.02068e-07 3.02305e-07 3.01923e-07 -7.41113e-07 -7.40394e-07 3.01923e-07 3.02068e-07 -7.40394e-07 -7.40857e-07 -1.01931e-06 -4.21453e-07 -3.86106e-06 -2.88821e-06 -4.21453e-07 -7.44857e-07 -2.88821e-06 -1.10179e-07 -3.86106e-06 -2.88821e-06 -2.8336e-06 6.62945e-06 -2.88821e-06 -1.10179e-07 6.62945e-06 8.49245e-06 -7.44857e-07 -7.42855e-07 -1.10179e-07 6.09551e-07 -7.42855e-07 -7.34868e-07 6.09551e-07 5.64098e-07 -1.10179e-07 6.09551e-07 8.49245e-06 9.37205e-06 6.09551e-07 5.64098e-07 9.37205e-06 8.97332e-06 -2.8336e-06 6.62945e-06 -7.20395e-05 -2.11015e-05 6.62945e-06 8.49245e-06 -2.11015e-05 -1.61521e-05 -7.20395e-05 -2.11015e-05 -0.00018 -0.00018 -2.11015e-05 -1.61521e-05 -0.00018 -0.00018 8.49245e-06 9.37205e-06 -1.61521e-05 -1.70546e-05 9.37205e-06 8.97332e-06 -1.70546e-05 -1.7314e-05 -1.61521e-05 -1.70546e-05 -0.00018 -0.00018 -1.70546e-05 -1.7314e-05 -0.00018 -0.00018 -7.34868e-07 -7.41369e-07 5.64098e-07 4.56493e-07 -7.41369e-07 -7.41113e-07 4.56493e-07 4.81806e-07 5.64098e-07 4.56493e-07 8.97332e-06 8.93856e-06 4.56493e-07 4.81806e-07 8.93856e-06 8.98619e-06 -7.41113e-07 -7.40394e-07 4.81806e-07 4.84141e-07 -7.40394e-07 -7.40857e-07 4.84141e-07 4.80278e-07 4.81806e-07 4.84141e-07 8.98619e-06 8.96948e-06 4.84141e-07 4.80278e-07 8.96948e-06 8.97266e-06 8.97332e-06 8.93856e-06 -1.7314e-05 -1.72582e-05 8.93856e-06 8.98619e-06 -1.72582e-05 -1.72623e-05 -1.7314e-05 -1.72582e-05 -0.00018 -0.00018 -1.72582e-05 -1.72623e-05 -0.00018 -0.00018 8.98619e-06 8.96948e-06 -1.72623e-05 -1.72636e-05 8.96948e-06 8.97266e-06 -1.72636e-05 -1.72631e-05 -1.72623e-05 -1.72636e-05 -0.00018 -0.00018 -1.72636e-05 -1.72631e-05 -0.00018 -0.00018 -3.58007e-09 -3.57871e-09 1.96795e-08 1.96731e-08 -3.57871e-09 -3.57936e-09 1.96731e-08 1.96744e-08 1.96795e-08 1.96731e-08 -9.37571e-08 -9.37178e-08 1.96731e-08 1.96744e-08 -9.37178e-08 -9.37301e-08 -3.57936e-09 -3.57921e-09 1.96744e-08 1.96746e-08 -3.57921e-09 -3.57921e-09 1.96746e-08 1.96743e-08 1.96744e-08 1.96746e-08 -9.37301e-08 -9.37282e-08 1.96746e-08 1.96743e-08 -9.37282e-08 -9.37278e-08 -9.37571e-08 -9.37178e-08 3.02068e-07 3.02032e-07 -9.37178e-08 -9.37301e-08 3.02032e-07 3.02035e-07 3.02068e-07 3.02032e-07 -7.40857e-07 -7.40685e-07 3.02032e-07 3.02035e-07 -7.40685e-07 -7.40729e-07 -9.37301e-08 -9.37282e-08 3.02035e-07 3.02037e-07 -9.37282e-08 -9.37278e-08 3.02037e-07 3.02036e-07 3.02035e-07 3.02037e-07 -7.40729e-07 -7.40722e-07 3.02037e-07 3.02036e-07 -7.40722e-07 -7.40721e-07 -3.57921e-09 -3.57923e-09 1.96743e-08 1.96745e-08 -3.57923e-09 -3.57922e-09 1.96745e-08 1.96744e-08 1.96743e-08 1.96745e-08 -9.37278e-08 -9.37282e-08 1.96745e-08 1.96744e-08 -9.37282e-08 -9.3728e-08 -3.57922e-09 -3.57922e-09 1.96744e-08 1.96744e-08 -3.57922e-09 -3.57922e-09 1.96744e-08 1.96744e-08 1.96744e-08 1.96744e-08 -9.3728e-08 -9.37281e-08 1.96744e-08 1.96744e-08 -9.37281e-08 -9.37281e-08 -9.37278e-08 -9.37282e-08 3.02036e-07 3.02036e-07 -9.37282e-08 -9.3728e-08 3.02036e-07 3.02036e-07 3.02036e-07 3.02036e-07 -7.40721e-07 -7.40722e-07 3.02036e-07 3.02036e-07 -7.40722e-07 -7.40722e-07 -9.3728e-08 -9.37281e-08 3.02036e-07 3.02036e-07 -9.37281e-08 -9.37281e-08 3.02036e-07 3.02036e-07 3.02036e-07 3.02036e-07 -7.40722e-07 -7.40722e-07 3.02036e-07 3.02036e-07 -7.40722e-07 -7.40722e-07 -7.40857e-07 -7.40685e-07 4.80278e-07 4.8185e-07 -7.40685e-07 -7.40729e-07 4.8185e-07 4.81464e-07 4.80278e-07 4.8185e-07 8.97266e-06 8.97264e-06 4.8185e-07 4.81464e-07 8.97264e-06 8.97238e-06 -7.40729e-07 -7.40722e-07 4.81464e-07 4.81508e-07 -7.40722e-07 -7.40721e-07 4.81508e-07 4.81521e-07 4.81464e-07 4.81508e-07 8.97238e-06 8.9725e-06 4.81508e-07 4.81521e-07 8.9725e-06 8.97247e-06 8.97266e-06 8.97264e-06 -1.72631e-05 -1.72632e-05 8.97264e-06 8.97238e-06 -1.72632e-05 -1.72632e-05 -1.72631e-05 -1.72632e-05 -0.00018 -0.00018 -1.72632e-05 -1.72632e-05 -0.00018 -0.00018 8.97238e-06 8.9725e-06 -1.72632e-05 -1.72632e-05 8.9725e-06 8.97247e-06 -1.72632e-05 -1.72632e-05 -1.72632e-05 -1.72632e-05 -0.00018 -0.00018 -1.72632e-05 -1.72632e-05 -0.00018 -0.00018 -7.40721e-07 -7.40722e-07 4.81521e-07 4.8151e-07 -7.40722e-07 -7.40722e-07 4.8151e-07 4.81515e-07 4.81521e-07 4.8151e-07 8.97247e-06 8.97247e-06 4.8151e-07 4.81515e-07 8.97247e-06 8.97247e-06 -7.40722e-07 -7.40722e-07 4.81515e-07 4.81513e-07 -7.40722e-07 -7.40722e-07 4.81513e-07 4.81513e-07 4.81515e-07 4.81513e-07 8.97247e-06 8.97247e-06 4.81513e-07 4.81513e-07 8.97247e-06 8.97247e-06 8.97247e-06 8.97247e-06 -1.72632e-05 -1.72632e-05 8.97247e-06 8.97247e-06 -1.72632e-05 -1.72632e-05 -1.72632e-05 -1.72632e-05 -0.00018 -0.00018 -1.72632e-05 -1.72632e-05 -0.00018 -0.00018 8.97247e-06 8.97247e-06 -1.72632e-05 -1.72632e-05 8.97247e-06 8.97247e-06 -1.72632e-05 -1.72632e-05 -1.72632e-05 -1.72632e-05 -0.00018 -0.00018 -1.72632e-05 -1.72632e-05 -0.00018 -0.00018 2.72576e-13 7.14564e-13 -1.18247e-12 -1.26395e-12 7.14564e-13 6.25112e-13 -1.26395e-12 -1.26351e-12 -1.18247e-12 -1.26395e-12 4.37383e-12 4.39242e-12 -1.26395e-12 -1.26351e-12 4.39242e-12 4.39663e-12 6.25112e-13 6.30675e-13 -1.26351e-12 -1.25883e-12 6.30675e-13 6.31664e-13 -1.25883e-12 -1.2607e-12 -1.26351e-12 -1.25883e-12 4.39663e-12 4.39535e-12 -1.25883e-12 -1.2607e-12 4.39535e-12 4.39563e-12 4.37383e-12 4.39242e-12 -1.45275e-11 -1.45307e-11 4.39242e-12 4.39663e-12 -1.45307e-11 -1.45312e-11 -1.45275e-11 -1.45307e-11 4.43541e-11 4.43545e-11 -1.45307e-11 -1.45312e-11 4.43545e-11 4.43548e-11 4.39663e-12 4.39535e-12 -1.45312e-11 -1.45306e-11 4.39535e-12 4.39563e-12 -1.45306e-11 -1.45307e-11 -1.45312e-11 -1.45306e-11 4.43548e-11 4.43547e-11 -1.45306e-11 -1.45307e-11 4.43547e-11 4.43549e-11 6.31664e-13 6.30559e-13 -1.2607e-12 -1.2603e-12 6.30559e-13 6.30978e-13 -1.2603e-12 -1.26033e-12 -1.2607e-12 -1.2603e-12 4.39563e-12 4.39557e-12 -1.2603e-12 -1.26033e-12 4.39557e-12 4.39544e-12 6.30978e-13 6.30982e-13 -1.26033e-12 -1.2605e-12 6.30982e-13 6.30529e-13 -1.2605e-12 -1.25983e-12 -1.26033e-12 -1.2605e-12 4.39544e-12 4.39606e-12 -1.2605e-12 -1.25983e-12 4.39606e-12 4.39398e-12 4.39563e-12 4.39557e-12 -1.45307e-11 -1.45307e-11 4.39557e-12 4.39544e-12 -1.45307e-11 -1.45307e-11 -1.45307e-11 -1.45307e-11 4.43549e-11 4.43546e-11 -1.45307e-11 -1.45307e-11 4.43546e-11 4.43543e-11 4.39544e-12 4.39606e-12 -1.45307e-11 -1.45314e-11 4.39606e-12 4.39398e-12 -1.45314e-11 -1.45289e-11 -1.45307e-11 -1.45314e-11 4.43543e-11 4.43571e-11 -1.45314e-11 -1.45289e-11 4.43571e-11 4.43493e-11 4.43541e-11 4.43545e-11 -1.14398e-10 -1.14398e-10 4.43545e-11 4.43548e-11 -1.14398e-10 -1.14398e-10 -1.14398e-10 -1.14398e-10 1.99467e-10 1.99467e-10 -1.14398e-10 -1.14398e-10 1.99467e-10 1.99468e-10 4.43548e-11 4.43547e-11 -1.14398e-10 -1.14398e-10 4.43547e-11 4.43549e-11 -1.14398e-10 -1.14399e-10 -1.14398e-10 -1.14398e-10 1.99468e-10 1.99466e-10 -1.14398e-10 -1.14399e-10 1.99466e-10 1.9947e-10 1.99467e-10 1.99467e-10 9.09455e-11 9.09459e-11 1.99467e-10 1.99468e-10 9.09459e-11 9.09442e-11 9.09455e-11 9.09459e-11 -3.57922e-09 -3.57922e-09 9.09459e-11 9.09442e-11 -3.57922e-09 -3.57922e-09 1.99468e-10 1.99466e-10 9.09442e-11 9.09489e-11 1.99466e-10 1.9947e-10 9.09489e-11 9.09388e-11 9.09442e-11 9.09489e-11 -3.57922e-09 -3.57922e-09 9.09489e-11 9.09388e-11 -3.57922e-09 -3.57923e-09 4.43549e-11 4.43546e-11 -1.14399e-10 -1.14397e-10 4.43546e-11 4.43543e-11 -1.14397e-10 -1.14398e-10 -1.14399e-10 -1.14397e-10 1.9947e-10 1.99465e-10 -1.14397e-10 -1.14398e-10 1.99465e-10 1.99463e-10 4.43543e-11 4.43571e-11 -1.14398e-10 -1.14403e-10 4.43571e-11 4.43493e-11 -1.14403e-10 -1.1439e-10 -1.14398e-10 -1.14403e-10 1.99463e-10 1.99493e-10 -1.14403e-10 -1.1439e-10 1.99493e-10 1.99413e-10 1.9947e-10 1.99465e-10 9.09388e-11 9.09525e-11 1.99465e-10 1.99463e-10 9.09525e-11 9.09579e-11 9.09388e-11 9.09525e-11 -3.57923e-09 -3.57919e-09 9.09525e-11 9.09579e-11 -3.57919e-09 -3.57929e-09 1.99463e-10 1.99493e-10 9.09579e-11 9.08597e-11 1.99493e-10 1.99413e-10 9.08597e-11 9.11713e-11 9.09579e-11 9.08597e-11 -3.57929e-09 -3.57909e-09 9.08597e-11 9.11713e-11 -3.57909e-09 -3.57952e-09 6.30529e-13 6.31477e-13 -1.25983e-12 -1.26116e-12 6.31477e-13 6.32251e-13 -1.26116e-12 -1.26295e-12 -1.25983e-12 -1.26116e-12 4.39398e-12 4.39787e-12 -1.26116e-12 -1.26295e-12 4.39787e-12 4.40096e-12 6.32251e-13 6.19042e-13 -1.26295e-12 -1.23968e-12 6.19042e-13 6.6045e-13 -1.23968e-12 -1.31043e-12 -1.26295e-12 -1.23968e-12 4.40096e-12 4.34961e-12 -1.23968e-12 -1.31043e-12 4.34961e-12 4.49742e-12 4.39398e-12 4.39787e-12 -1.45289e-11 -1.45297e-11 4.39787e-12 4.40096e-12 -1.45297e-11 -1.45593e-11 -1.45289e-11 -1.45297e-11 4.43493e-11 4.43551e-11 -1.45297e-11 -1.45593e-11 4.43551e-11 4.43828e-11 4.40096e-12 4.34961e-12 -1.45593e-11 -1.44367e-11 4.34961e-12 4.49742e-12 -1.44367e-11 -1.46236e-11 -1.45593e-11 -1.44367e-11 4.43828e-11 4.43477e-11 -1.44367e-11 -1.46236e-11 4.43477e-11 4.39459e-11 6.6045e-13 6.1962e-13 -1.31043e-12 -1.25931e-12 6.1962e-13 4.63376e-13 -1.25931e-12 -1.09848e-12 -1.31043e-12 -1.25931e-12 4.49742e-12 4.31586e-12 -1.25931e-12 -1.09848e-12 4.31586e-12 4.14327e-12 4.63376e-13 6.4636e-13 -1.09848e-12 -1.03913e-12 6.4636e-13 9.60012e-13 -1.03913e-12 -8.48638e-13 -1.09848e-12 -1.03913e-12 4.14327e-12 3.66224e-12 -1.03913e-12 -8.48638e-13 3.66224e-12 4.68614e-12 4.49742e-12 4.31586e-12 -1.46236e-11 -1.49808e-11 4.31586e-12 4.14327e-12 -1.49808e-11 -1.59511e-11 -1.46236e-11 -1.49808e-11 4.39459e-11 4.47541e-11 -1.49808e-11 -1.59511e-11 4.47541e-11 5.0992e-11 4.14327e-12 3.66224e-12 -1.59511e-11 -7.45196e-12 3.66224e-12 4.68614e-12 -7.45196e-12 -1.12179e-12 -1.59511e-11 -7.45196e-12 5.0992e-11 2.14957e-11 -7.45196e-12 -1.12179e-12 2.14957e-11 2.72388e-11 4.43493e-11 4.43551e-11 -1.1439e-10 -1.14374e-10 4.43551e-11 4.43828e-11 -1.14374e-10 -1.14454e-10 -1.1439e-10 -1.14374e-10 1.99413e-10 1.99529e-10 -1.14374e-10 -1.14454e-10 1.99529e-10 1.99078e-10 4.43828e-11 4.43477e-11 -1.14454e-10 -1.15101e-10 4.43477e-11 4.39459e-11 -1.15101e-10 -1.10068e-10 -1.14454e-10 -1.15101e-10 1.99078e-10 2.02924e-10 -1.15101e-10 -1.10068e-10 2.02924e-10 1.83799e-10 1.99413e-10 1.99529e-10 9.11713e-11 9.05978e-11 1.99529e-10 1.99078e-10 9.05978e-11 9.20081e-11 9.11713e-11 9.05978e-11 -3.57952e-09 -3.57768e-09 9.05978e-11 9.20081e-11 -3.57768e-09 -3.58782e-09 1.99078e-10 2.02924e-10 9.20081e-11 8.0999e-11 2.02924e-10 1.83799e-10 8.0999e-11 1.39859e-10 9.20081e-11 8.0999e-11 -3.58782e-09 -3.54635e-09 8.0999e-11 1.39859e-10 -3.54635e-09 -3.65696e-09 4.39459e-11 4.47541e-11 -1.10068e-10 -1.25252e-10 4.47541e-11 5.0992e-11 -1.25252e-10 -1.56006e-10 -1.10068e-10 -1.25252e-10 1.83799e-10 2.17019e-10 -1.25252e-10 -1.56006e-10 2.17019e-10 3.07199e-10 5.0992e-11 2.14957e-11 -1.56006e-10 1.21445e-11 2.14957e-11 2.72388e-11 1.21445e-11 1.23739e-10 -1.56006e-10 1.21445e-11 3.07199e-10 -1.55346e-10 1.21445e-11 1.23739e-10 -1.55346e-10 -4.85909e-11 1.83799e-10 2.17019e-10 1.39859e-10 -3.04973e-11 2.17019e-10 3.07199e-10 -3.04973e-11 -2.57694e-10 1.39859e-10 -3.04973e-11 -3.65696e-09 -3.55621e-09 -3.04973e-11 -2.57694e-10 -3.55621e-09 -3.17389e-09 3.07199e-10 -1.55346e-10 -2.57694e-10 1.58157e-09 -1.55346e-10 -4.85909e-11 1.58157e-09 2.71343e-09 -2.57694e-10 1.58157e-09 -3.17389e-09 -5.60135e-09 1.58157e-09 2.71343e-09 -5.60135e-09 -2.85751e-09 -3.57922e-09 -3.57922e-09 1.96744e-08 1.96744e-08 -3.57922e-09 -3.57922e-09 1.96744e-08 1.96744e-08 1.96744e-08 1.96744e-08 -9.37281e-08 -9.37281e-08 1.96744e-08 1.96744e-08 -9.37281e-08 -9.37281e-08 -3.57922e-09 -3.57922e-09 1.96744e-08 1.96744e-08 -3.57922e-09 -3.57923e-09 1.96744e-08 1.96744e-08 1.96744e-08 1.96744e-08 -9.37281e-08 -9.3728e-08 1.96744e-08 1.96744e-08 -9.3728e-08 -9.37282e-08 -9.37281e-08 -9.37281e-08 3.02036e-07 3.02036e-07 -9.37281e-08 -9.37281e-08 3.02036e-07 3.02036e-07 3.02036e-07 3.02036e-07 -7.40722e-07 -7.40722e-07 3.02036e-07 3.02036e-07 -7.40722e-07 -7.40722e-07 -9.37281e-08 -9.3728e-08 3.02036e-07 3.02036e-07 -9.3728e-08 -9.37282e-08 3.02036e-07 3.02036e-07 3.02036e-07 3.02036e-07 -7.40722e-07 -7.40722e-07 3.02036e-07 3.02036e-07 -7.40722e-07 -7.40721e-07 -3.57923e-09 -3.57919e-09 1.96744e-08 1.96745e-08 -3.57919e-09 -3.57929e-09 1.96745e-08 1.96742e-08 1.96744e-08 1.96745e-08 -9.37282e-08 -9.37282e-08 1.96745e-08 1.96742e-08 -9.37282e-08 -9.37263e-08 -3.57929e-09