# vtk DataFile Version 3.0
#This file was generated by the deal.II library on 2022/11/2 at 18:37:50
ASCII
DATASET UNSTRUCTURED_GRID

POINTS 4096 double
0 0.5 0
0.03125 0.5 0
0 0.53125 0
0.03125 0.53125 0
0.03125 0.5 0
0.0625 0.5 0
0.03125 0.53125 0
0.0625 0.53125 0
0 0.53125 0
0.03125 0.53125 0
0 0.5625 0
0.03125 0.5625 0
0.03125 0.53125 0
0.0625 0.53125 0
0.03125 0.5625 0
0.0625 0.5625 0
0.0625 0.5 0
0.09375 0.5 0
0.0625 0.53125 0
0.09375 0.53125 0
0.09375 0.5 0
0.125 0.5 0
0.09375 0.53125 0
0.125 0.53125 0
0.0625 0.53125 0
0.09375 0.53125 0
0.0625 0.5625 0
0.09375 0.5625 0
0.09375 0.53125 0
0.125 0.53125 0
0.09375 0.5625 0
0.125 0.5625 0
0 0.5625 0
0.03125 0.5625 0
0 0.59375 0
0.03125 0.59375 0
0.03125 0.5625 0
0.0625 0.5625 0
0.03125 0.59375 0
0.0625 0.59375 0
0 0.59375 0
0.03125 0.59375 0
0 0.625 0
0.03125 0.625 0
0.03125 0.59375 0
0.0625 0.59375 0
0.03125 0.625 0
0.0625 0.625 0
0.0625 0.5625 0
0.09375 0.5625 0
0.0625 0.59375 0
0.09375 0.59375 0
0.09375 0.5625 0
0.125 0.5625 0
0.09375 0.59375 0
0.125 0.59375 0
0.0625 0.59375 0
0.09375 0.59375 0
0.0625 0.625 0
0.09375 0.625 0
0.09375 0.59375 0
0.125 0.59375 0
0.09375 0.625 0
0.125 0.625 0
0.125 0.5 0
0.15625 0.5 0
0.125 0.53125 0
0.15625 0.53125 0
0.15625 0.5 0
0.1875 0.5 0
0.15625 0.53125 0
0.1875 0.53125 0
0.125 0.53125 0
0.15625 0.53125 0
0.125 0.5625 0
0.15625 0.5625 0
0.15625 0.53125 0
0.1875 0.53125 0
0.15625 0.5625 0
0.1875 0.5625 0
0.1875 0.5 0
0.21875 0.5 0
0.1875 0.53125 0
0.21875 0.53125 0
0.21875 0.5 0
0.25 0.5 0
0.21875 0.53125 0
0.25 0.53125 0
0.1875 0.53125 0
0.21875 0.53125 0
0.1875 0.5625 0
0.21875 0.5625 0
0.21875 0.53125 0
0.25 0.53125 0
0.21875 0.5625 0
0.25 0.5625 0
0.125 0.5625 0
0.15625 0.5625 0
0.125 0.59375 0
0.15625 0.59375 0
0.15625 0.5625 0
0.1875 0.5625 0
0.15625 0.59375 0
0.1875 0.59375 0
0.125 0.59375 0
0.15625 0.59375 0
0.125 0.625 0
0.15625 0.625 0
0.15625 0.59375 0
0.1875 0.59375 0
0.15625 0.625 0
0.1875 0.625 0
0.1875 0.5625 0
0.21875 0.5625 0
0.1875 0.59375 0
0.21875 0.59375 0
0.21875 0.5625 0
0.25 0.5625 0
0.21875 0.59375 0
0.25 0.59375 0
0.1875 0.59375 0
0.21875 0.59375 0
0.1875 0.625 0
0.21875 0.625 0
0.21875 0.59375 0
0.25 0.59375 0
0.21875 0.625 0
0.25 0.625 0
0 0.625 0
0.03125 0.625 0
0 0.65625 0
0.03125 0.65625 0
0.03125 0.625 0
0.0625 0.625 0
0.03125 0.65625 0
0.0625 0.65625 0
0 0.65625 0
0.03125 0.65625 0
0 0.6875 0
0.03125 0.6875 0
0.03125 0.65625 0
0.0625 0.65625 0
0.03125 0.6875 0
0.0625 0.6875 0
0.0625 0.625 0
0.09375 0.625 0
0.0625 0.65625 0
0.09375 0.65625 0
0.09375 0.625 0
0.125 0.625 0
0.09375 0.65625 0
0.125 0.65625 0
0.0625 0.65625 0
0.09375 0.65625 0
0.0625 0.6875 0
0.09375 0.6875 0
0.09375 0.65625 0
0.125 0.65625 0
0.09375 0.6875 0
0.125 0.6875 0
0 0.6875 0
0.03125 0.6875 0
0 0.71875 0
0.03125 0.71875 0
0.03125 0.6875 0
0.0625 0.6875 0
0.03125 0.71875 0
0.0625 0.71875 0
0 0.71875 0
0.03125 0.71875 0
0 0.75 0
0.03125 0.75 0
0.03125 0.71875 0
0.0625 0.71875 0
0.03125 0.75 0
0.0625 0.75 0
0.0625 0.6875 0
0.09375 0.6875 0
0.0625 0.71875 0
0.09375 0.71875 0
0.09375 0.6875 0
0.125 0.6875 0
0.09375 0.71875 0
0.125 0.71875 0
0.0625 0.71875 0
0.09375 0.71875 0
0.0625 0.75 0
0.09375 0.75 0
0.09375 0.71875 0
0.125 0.71875 0
0.09375 0.75 0
0.125 0.75 0
0.125 0.625 0
0.15625 0.625 0
0.125 0.65625 0
0.15625 0.65625 0
0.15625 0.625 0
0.1875 0.625 0
0.15625 0.65625 0
0.1875 0.65625 0
0.125 0.65625 0
0.15625 0.65625 0
0.125 0.6875 0
0.15625 0.6875 0
0.15625 0.65625 0
0.1875 0.65625 0
0.15625 0.6875 0
0.1875 0.6875 0
0.1875 0.625 0
0.21875 0.625 0
0.1875 0.65625 0
0.21875 0.65625 0
0.21875 0.625 0
0.25 0.625 0
0.21875 0.65625 0
0.25 0.65625 0
0.1875 0.65625 0
0.21875 0.65625 0
0.1875 0.6875 0
0.21875 0.6875 0
0.21875 0.65625 0
0.25 0.65625 0
0.21875 0.6875 0
0.25 0.6875 0
0.125 0.6875 0
0.15625 0.6875 0
0.125 0.71875 0
0.15625 0.71875 0
0.15625 0.6875 0
0.1875 0.6875 0
0.15625 0.71875 0
0.1875 0.71875 0
0.125 0.71875 0
0.15625 0.71875 0
0.125 0.75 0
0.15625 0.75 0
0.15625 0.71875 0
0.1875 0.71875 0
0.15625 0.75 0
0.1875 0.75 0
0.1875 0.6875 0
0.21875 0.6875 0
0.1875 0.71875 0
0.21875 0.71875 0
0.21875 0.6875 0
0.25 0.6875 0
0.21875 0.71875 0
0.25 0.71875 0
0.1875 0.71875 0
0.21875 0.71875 0
0.1875 0.75 0
0.21875 0.75 0
0.21875 0.71875 0
0.25 0.71875 0
0.21875 0.75 0
0.25 0.75 0
0.25 0.5 0
0.28125 0.5 0
0.25 0.53125 0
0.28125 0.53125 0
0.28125 0.5 0
0.3125 0.5 0
0.28125 0.53125 0
0.3125 0.53125 0
0.25 0.53125 0
0.28125 0.53125 0
0.25 0.5625 0
0.28125 0.5625 0
0.28125 0.53125 0
0.3125 0.53125 0
0.28125 0.5625 0
0.3125 0.5625 0
0.3125 0.5 0
0.34375 0.5 0
0.3125 0.53125 0
0.34375 0.53125 0
0.34375 0.5 0
0.375 0.5 0
0.34375 0.53125 0
0.375 0.53125 0
0.3125 0.53125 0
0.34375 0.53125 0
0.3125 0.5625 0
0.34375 0.5625 0
0.34375 0.53125 0
0.375 0.53125 0
0.34375 0.5625 0
0.375 0.5625 0
0.25 0.5625 0
0.28125 0.5625 0
0.25 0.59375 0
0.28125 0.59375 0
0.28125 0.5625 0
0.3125 0.5625 0
0.28125 0.59375 0
0.3125 0.59375 0
0.25 0.59375 0
0.28125 0.59375 0
0.25 0.625 0
0.28125 0.625 0
0.28125 0.59375 0
0.3125 0.59375 0
0.28125 0.625 0
0.3125 0.625 0
0.3125 0.5625 0
0.34375 0.5625 0
0.3125 0.59375 0
0.34375 0.59375 0
0.34375 0.5625 0
0.375 0.5625 0
0.34375 0.59375 0
0.375 0.59375 0
0.3125 0.59375 0
0.34375 0.59375 0
0.3125 0.625 0
0.34375 0.625 0
0.34375 0.59375 0
0.375 0.59375 0
0.34375 0.625 0
0.375 0.625 0
0.375 0.5 0
0.40625 0.5 0
0.375 0.53125 0
0.40625 0.53125 0
0.40625 0.5 0
0.4375 0.5 0
0.40625 0.53125 0
0.4375 0.53125 0
0.375 0.53125 0
0.40625 0.53125 0
0.375 0.5625 0
0.40625 0.5625 0
0.40625 0.53125 0
0.4375 0.53125 0
0.40625 0.5625 0
0.4375 0.5625 0
0.4375 0.5 0
0.46875 0.5 0
0.4375 0.53125 0
0.46875 0.53125 0
0.46875 0.5 0
0.5 0.5 0
0.46875 0.53125 0
0.5 0.53125 0
0.4375 0.53125 0
0.46875 0.53125 0
0.4375 0.5625 0
0.46875 0.5625 0
0.46875 0.53125 0
0.5 0.53125 0
0.46875 0.5625 0
0.5 0.5625 0
0.375 0.5625 0
0.40625 0.5625 0
0.375 0.59375 0
0.40625 0.59375 0
0.40625 0.5625 0
0.4375 0.5625 0
0.40625 0.59375 0
0.4375 0.59375 0
0.375 0.59375 0
0.40625 0.59375 0
0.375 0.625 0
0.40625 0.625 0
0.40625 0.59375 0
0.4375 0.59375 0
0.40625 0.625 0
0.4375 0.625 0
0.4375 0.5625 0
0.46875 0.5625 0
0.4375 0.59375 0
0.46875 0.59375 0
0.46875 0.5625 0
0.5 0.5625 0
0.46875 0.59375 0
0.5 0.59375 0
0.4375 0.59375 0
0.46875 0.59375 0
0.4375 0.625 0
0.46875 0.625 0
0.46875 0.59375 0
0.5 0.59375 0
0.46875 0.625 0
0.5 0.625 0
0.25 0.625 0
0.28125 0.625 0
0.25 0.65625 0
0.28125 0.65625 0
0.28125 0.625 0
0.3125 0.625 0
0.28125 0.65625 0
0.3125 0.65625 0
0.25 0.65625 0
0.28125 0.65625 0
0.25 0.6875 0
0.28125 0.6875 0
0.28125 0.65625 0
0.3125 0.65625 0
0.28125 0.6875 0
0.3125 0.6875 0
0.3125 0.625 0
0.34375 0.625 0
0.3125 0.65625 0
0.34375 0.65625 0
0.34375 0.625 0
0.375 0.625 0
0.34375 0.65625 0
0.375 0.65625 0
0.3125 0.65625 0
0.34375 0.65625 0
0.3125 0.6875 0
0.34375 0.6875 0
0.34375 0.65625 0
0.375 0.65625 0
0.34375 0.6875 0
0.375 0.6875 0
0.25 0.6875 0
0.28125 0.6875 0
0.25 0.71875 0
0.28125 0.71875 0
0.28125 0.6875 0
0.3125 0.6875 0
0.28125 0.71875 0
0.3125 0.71875 0
0.25 0.71875 0
0.28125 0.71875 0
0.25 0.75 0
0.28125 0.75 0
0.28125 0.71875 0
0.3125 0.71875 0
0.28125 0.75 0
0.3125 0.75 0
0.3125 0.6875 0
0.34375 0.6875 0
0.3125 0.71875 0
0.34375 0.71875 0
0.34375 0.6875 0
0.375 0.6875 0
0.34375 0.71875 0
0.375 0.71875 0
0.3125 0.71875 0
0.34375 0.71875 0
0.3125 0.75 0
0.34375 0.75 0
0.34375 0.71875 0
0.375 0.71875 0
0.34375 0.75 0
0.375 0.75 0
0.375 0.625 0
0.40625 0.625 0
0.375 0.65625 0
0.40625 0.65625 0
0.40625 0.625 0
0.4375 0.625 0
0.40625 0.65625 0
0.4375 0.65625 0
0.375 0.65625 0
0.40625 0.65625 0
0.375 0.6875 0
0.40625 0.6875 0
0.40625 0.65625 0
0.4375 0.65625 0
0.40625 0.6875 0
0.4375 0.6875 0
0.4375 0.625 0
0.46875 0.625 0
0.4375 0.65625 0
0.46875 0.65625 0
0.46875 0.625 0
0.5 0.625 0
0.46875 0.65625 0
0.5 0.65625 0
0.4375 0.65625 0
0.46875 0.65625 0
0.4375 0.6875 0
0.46875 0.6875 0
0.46875 0.65625 0
0.5 0.65625 0
0.46875 0.6875 0
0.5 0.6875 0
0.375 0.6875 0
0.40625 0.6875 0
0.375 0.71875 0
0.40625 0.71875 0
0.40625 0.6875 0
0.4375 0.6875 0
0.40625 0.71875 0
0.4375 0.71875 0
0.375 0.71875 0
0.40625 0.71875 0
0.375 0.75 0
0.40625 0.75 0
0.40625 0.71875 0
0.4375 0.71875 0
0.40625 0.75 0
0.4375 0.75 0
0.4375 0.6875 0
0.46875 0.6875 0
0.4375 0.71875 0
0.46875 0.71875 0
0.46875 0.6875 0
0.5 0.6875 0
0.46875 0.71875 0
0.5 0.71875 0
0.4375 0.71875 0
0.46875 0.71875 0
0.4375 0.75 0
0.46875 0.75 0
0.46875 0.71875 0
0.5 0.71875 0
0.46875 0.75 0
0.5 0.75 0
0 0.75 0
0.03125 0.75 0
0 0.78125 0
0.03125 0.78125 0
0.03125 0.75 0
0.0625 0.75 0
0.03125 0.78125 0
0.0625 0.78125 0
0 0.78125 0
0.03125 0.78125 0
0 0.8125 0
0.03125 0.8125 0
0.03125 0.78125 0
0.0625 0.78125 0
0.03125 0.8125 0
0.0625 0.8125 0
0.0625 0.75 0
0.09375 0.75 0
0.0625 0.78125 0
0.09375 0.78125 0
0.09375 0.75 0
0.125 0.75 0
0.09375 0.78125 0
0.125 0.78125 0
0.0625 0.78125 0
0.09375 0.78125 0
0.0625 0.8125 0
0.09375 0.8125 0
0.09375 0.78125 0
0.125 0.78125 0
0.09375 0.8125 0
0.125 0.8125 0
0 0.8125 0
0.03125 0.8125 0
0 0.84375 0
0.03125 0.84375 0
0.03125 0.8125 0
0.0625 0.8125 0
0.03125 0.84375 0
0.0625 0.84375 0
0 0.84375 0
0.03125 0.84375 0
0 0.875 0
0.03125 0.875 0
0.03125 0.84375 0
0.0625 0.84375 0
0.03125 0.875 0
0.0625 0.875 0
0.0625 0.8125 0
0.09375 0.8125 0
0.0625 0.84375 0
0.09375 0.84375 0
0.09375 0.8125 0
0.125 0.8125 0
0.09375 0.84375 0
0.125 0.84375 0
0.0625 0.84375 0
0.09375 0.84375 0
0.0625 0.875 0
0.09375 0.875 0
0.09375 0.84375 0
0.125 0.84375 0
0.09375 0.875 0
0.125 0.875 0
0.125 0.75 0
0.15625 0.75 0
0.125 0.78125 0
0.15625 0.78125 0
0.15625 0.75 0
0.1875 0.75 0
0.15625 0.78125 0
0.1875 0.78125 0
0.125 0.78125 0
0.15625 0.78125 0
0.125 0.8125 0
0.15625 0.8125 0
0.15625 0.78125 0
0.1875 0.78125 0
0.15625 0.8125 0
0.1875 0.8125 0
0.1875 0.75 0
0.21875 0.75 0
0.1875 0.78125 0
0.21875 0.78125 0
0.21875 0.75 0
0.25 0.75 0
0.21875 0.78125 0
0.25 0.78125 0
0.1875 0.78125 0
0.21875 0.78125 0
0.1875 0.8125 0
0.21875 0.8125 0
0.21875 0.78125 0
0.25 0.78125 0
0.21875 0.8125 0
0.25 0.8125 0
0.125 0.8125 0
0.15625 0.8125 0
0.125 0.84375 0
0.15625 0.84375 0
0.15625 0.8125 0
[...]
POINT_DATA 4096
SCALARS x_dis double 1
LOOKUP_TABLE default
-5.61024e-31 3.53168e-30 -5.08281e-30 -6.26627e-30 3.53168e-30 -6.30193e-30 -6.26627e-30 1.55007e-29 -5.08281e-30 -6.26627e-30 1.23791e-29 1.04904e-29 -6.26627e-30 1.55007e-29 1.04904e-29 -4.59971e-29 -6.30193e-30 6.40728e-30 1.55007e-29 -2.02476e-29 6.40728e-30 -3.46719e-30 -2.02476e-29 1.20496e-29 1.55007e-29 -2.02476e-29 -4.59971e-29 5.17852e-29 -2.02476e-29 1.20496e-29 5.17852e-29 -4.06852e-29 1.23791e-29 1.04904e-29 -3.87536e-29 -4.48283e-29 1.04904e-29 -4.59971e-29 -4.48283e-29 1.72296e-28 -3.87536e-29 -4.48283e-29 1.42194e-28 1.18407e-28 -4.48283e-29 1.72296e-28 1.18407e-28 -7.42697e-28 -4.59971e-29 5.17852e-29 1.72296e-28 -2.04879e-28 5.17852e-29 -4.06852e-29 -2.04879e-28 1.21969e-28 1.72296e-28 -2.04879e-28 -7.42697e-28 8.56676e-28 -2.04879e-28 1.21969e-28 8.56676e-28 -3.05585e-28 -3.46719e-30 3.00077e-30 1.20496e-29 -9.20934e-30 3.00077e-30 2.71593e-31 -9.20934e-30 -4.09161e-30 1.20496e-29 -9.20934e-30 -4.06852e-29 2.35927e-29 -9.20934e-30 -4.09161e-30 2.35927e-29 7.32236e-30 2.71593e-31 1.38588e-30 -4.09161e-30 5.95698e-30 1.38588e-30 2.6806e-30 5.95698e-30 -1.23602e-29 -4.09161e-30 5.95698e-30 7.32236e-30 -1.23118e-29 5.95698e-30 -1.23602e-29 -1.23118e-29 4.21251e-29 -4.06852e-29 2.35927e-29 1.21969e-28 -5.58185e-29 2.35927e-29 7.32236e-30 -5.58185e-29 6.44189e-30 1.21969e-28 -5.58185e-29 -3.05585e-28 2.58253e-28 -5.58185e-29 6.44189e-30 2.58253e-28 6.7388e-29 7.32236e-30 -1.23118e-29 6.44189e-30 4.12756e-29 -1.23118e-29 4.21251e-29 4.12756e-29 -1.04696e-28 6.44189e-30 4.12756e-29 6.7388e-29 -4.14566e-29 4.12756e-29 -1.04696e-28 -4.14566e-29 1.60714e-28 1.42194e-28 1.18407e-28 9.65858e-30 -7.44563e-28 1.18407e-28 -7.42697e-28 -7.44563e-28 2.42284e-27 9.65858e-30 -7.44563e-28 1.43782e-27 1.18531e-27 -7.44563e-28 2.42284e-27 1.18531e-27 -6.01441e-27 -7.42697e-28 8.56676e-28 2.42284e-27 -2.7756e-27 8.56676e-28 -3.05585e-28 -2.7756e-27 1.21638e-27 2.42284e-27 -2.7756e-27 -6.01441e-27 1.25078e-26 -2.7756e-27 1.21638e-27 1.25078e-26 -5.97613e-27 1.43782e-27 1.18531e-27 -1.15176e-26 4.86886e-27 1.18531e-27 -6.01441e-27 4.86886e-27 1.87979e-26 -1.15176e-26 4.86886e-27 4.53426e-26 -8.46997e-27 4.86886e-27 1.87979e-26 -8.46997e-27 -3.24972e-26 -6.01441e-27 1.25078e-26 1.87979e-26 -3.15159e-26 1.25078e-26 -5.97613e-27 -3.15159e-26 1.40271e-26 1.87979e-26 -3.15159e-26 -3.24972e-26 2.28926e-26 -3.15159e-26 1.40271e-26 2.28926e-26 1.15821e-26 -3.05585e-28 2.58253e-28 1.21638e-27 -5.30337e-28 2.58253e-28 6.7388e-29 -5.30337e-28 -1.01664e-27 1.21638e-27 -5.30337e-28 -5.97613e-27 2.52903e-27 -5.30337e-28 -1.01664e-27 2.52903e-27 7.41963e-27 6.7388e-29 -4.14566e-29 -1.01664e-27 5.38212e-28 -4.14566e-29 1.60714e-28 5.38212e-28 -1.85668e-29 -1.01664e-27 5.38212e-28 7.41963e-27 -7.34224e-28 5.38212e-28 -1.85668e-29 -7.34224e-28 9.38188e-28 -5.97613e-27 2.52903e-27 1.40271e-26 -1.78869e-26 2.52903e-27 7.41963e-27 -1.78869e-26 -8.08296e-27 1.40271e-26 -1.78869e-26 1.15821e-26 4.75985e-26 -1.78869e-26 -8.08296e-27 4.75985e-26 8.58879e-26 7.41963e-27 -7.34224e-28 -8.08296e-27 -7.03368e-27 -7.34224e-28 9.38188e-28 -7.03368e-27 -3.74581e-27 -8.08296e-27 -7.03368e-27 8.58879e-26 -1.68109e-26 -7.03368e-27 -3.74581e-27 -1.68109e-26 2.01864e-26 2.6806e-30 -6.53406e-30 -1.23602e-29 2.35947e-29 -6.53406e-30 5.06944e-30 2.35947e-29 -1.4116e-29 -1.23602e-29 2.35947e-29 4.21251e-29 -8.95873e-29 2.35947e-29 -1.4116e-29 -8.95873e-29 6.11828e-29 5.06944e-30 -1.49806e-30 -1.4116e-29 3.04649e-31 -1.49806e-30 1.62237e-30 3.04649e-31 -5.16448e-30 -1.4116e-29 3.04649e-31 6.11828e-29 -3.92362e-30 3.04649e-31 -5.16448e-30 -3.92362e-30 2.93455e-29 4.21251e-29 -8.95873e-29 -1.04696e-28 3.69394e-28 -8.95873e-29 6.11828e-29 3.69394e-28 -2.2436e-28 -1.04696e-28 3.69394e-28 1.60714e-28 -1.10771e-27 3.69394e-28 -2.2436e-28 -1.10771e-27 6.39518e-28 6.11828e-29 -3.92362e-30 -2.2436e-28 2.45151e-29 -3.92362e-30 2.93455e-29 2.45151e-29 -1.36447e-28 -2.2436e-28 2.45151e-29 6.39518e-28 -3.42179e-29 2.45151e-29 -1.36447e-28 -3.42179e-29 5.55885e-28 1.62237e-30 1.44206e-30 -5.16448e-30 -5.29436e-30 1.44206e-30 1.02143e-30 -5.29436e-30 -5.78957e-30 -5.16448e-30 -5.29436e-30 2.93455e-29 -7.50515e-30 -5.29436e-30 -5.78957e-30 -7.50515e-30 2.07482e-29 1.02143e-30 -2.71326e-30 -5.78957e-30 1.21103e-29 -2.71326e-30 -2.99363e-31 1.21103e-29 1.6068e-30 -5.78957e-30 1.21103e-29 2.07482e-29 -4.77199e-29 1.21103e-29 1.6068e-30 -4.77199e-29 1.42838e-29 2.93455e-29 -7.50515e-30 -1.36447e-28 5.04239e-29 -7.50515e-30 2.07482e-29 5.04239e-29 -5.74049e-29 -1.36447e-28 5.04239e-29 5.55885e-28 -3.75382e-28 5.04239e-29 -5.74049e-29 -3.75382e-28 2.2514e-28 2.07482e-29 -4.77199e-29 -5.74049e-29 1.24006e-28 -4.77199e-29 1.42838e-29 1.24006e-28 -6.14631e-29 -5.74049e-29 1.24006e-28 2.2514e-28 -5.4437e-28 1.24006e-28 -6.14631e-29 -5.4437e-28 1.7929e-28 1.60714e-28 -1.10771e-27 -1.85668e-29 3.02355e-27 -1.10771e-27 6.39518e-28 3.02355e-27 -3.61927e-27 -1.85668e-29 3.02355e-27 9.38188e-28 -1.14034e-26 3.02355e-27 -3.61927e-27 -1.14034e-26 1.32423e-26 6.39518e-28 -3.42179e-29 -3.61927e-27 1.42279e-27 -3.42179e-29 5.55885e-28 1.42279e-27 -2.04909e-27 -3.61927e-27 1.42279e-27 1.32423e-26 -2.74448e-27 1.42279e-27 -2.04909e-27 -2.74448e-27 8.54632e-27 9.38188e-28 -1.14034e-26 -3.74581e-27 4.56423e-26 -1.14034e-26 1.32423e-26 4.56423e-26 -5.82131e-26 -3.74581e-27 4.56423e-26 2.01864e-26 -1.93945e-25 4.56423e-26 -5.82131e-26 -1.93945e-25 1.81152e-25 1.32423e-26 -2.74448e-27 -5.82131e-26 7.6518e-27 -2.74448e-27 8.54632e-27 7.6518e-27 -3.63703e-26 -5.82131e-26 7.6518e-27 1.81152e-25 1.37898e-26 7.6518e-27 -3.63703e-26 1.37898e-26 1.18442e-25 5.55885e-28 -3.75382e-28 -2.04909e-27 1.59771e-27 -3.75382e-28 2.2514e-28 1.59771e-27 -1.7637e-27 -2.04909e-27 1.59771e-27 8.54632e-27 -4.57093e-27 1.59771e-27 -1.7637e-27 -4.57093e-27 6.45835e-27 2.2514e-28 -5.4437e-28 -1.7637e-27 3.0542e-27 -5.4437e-28 1.7929e-28 3.0542e-27 -9.87807e-28 -1.7637e-27 3.0542e-27 6.45835e-27 -1.16211e-26 3.0542e-27 -9.87807e-28 -1.16211e-26 2.99601e-27 8.54632e-27 -4.57093e-27 -3.63703e-26 1.75006e-26 -4.57093e-27 6.45835e-27 1.75006e-26 -2.53833e-26 -3.63703e-26 1.75006e-26 1.18442e-25 -6.17213e-26 1.75006e-26 -2.53833e-26 -6.17213e-26 9.75139e-26 6.45835e-27 -1.16211e-26 -2.53833e-26 3.50611e-26 -1.16211e-26 2.99601e-27 3.50611e-26 -1.87477e-26 -2.53833e-26 3.50611e-26 9.75139e-26 -1.43153e-25 3.50611e-26 -1.87477e-26 -1.43153e-25 6.94117e-26 4.53426e-26 -8.46997e-27 -2.73354e-25 2.94002e-26 -8.46997e-27 -3.24972e-26 2.94002e-26 1.01126e-25 -2.73354e-25 2.94002e-26 5.90044e-25 2.22638e-25 2.94002e-26 1.01126e-25 2.22638e-25 -4.58517e-25 -3.24972e-26 2.28926e-26 1.01126e-25 -2.79168e-26 2.28926e-26 1.15821e-26 -2.79168e-26 4.69447e-27 1.01126e-25 -2.79168e-26 -4.58517e-25 -1.35411e-25 -2.79168e-26 4.69447e-27 -1.35411e-25 -2.10678e-26 5.90044e-25 2.22638e-25 5.07168e-25 -2.4303e-24 2.22638e-25 -4.58517e-25 -2.4303e-24 3.26776e-24 5.07168e-25 -2.4303e-24 5.87043e-24 1.15469e-25 -2.4303e-24 3.26776e-24 1.15469e-25 -1.55624e-23 -4.58517e-25 -1.35411e-25 3.26776e-24 1.90644e-25 -1.35411e-25 -2.10678e-26 1.90644e-25 1.5016e-24 3.26776e-24 1.90644e-25 -1.55624e-23 5.07289e-24 1.90644e-25 1.5016e-24 5.07289e-24 -2.90446e-24 1.15821e-26 4.75985e-26 4.69447e-27 -1.97579e-25 4.75985e-26 8.58879e-26 -1.97579e-25 -1.96581e-25 4.69447e-27 -1.97579e-25 -2.10678e-26 2.00745e-25 -1.97579e-25 -1.96581e-25 2.00745e-25 1.06621e-24 8.58879e-26 -1.68109e-26 -1.96581e-25 -1.67882e-25 -1.68109e-26 2.01864e-26 -1.67882e-25 2.5547e-26 -1.96581e-25 -1.67882e-25 1.06621e-24 3.31228e-26 -1.67882e-25 2.5547e-26 3.31228e-26 -4.83137e-25 -2.10678e-26 2.00745e-25 1.5016e-24 -1.54875e-25 2.00745e-25 1.06621e-24 -1.54875e-25 -3.77729e-24 1.5016e-24 -1.54875e-25 -2.90446e-24 8.15331e-24 -1.54875e-25 -3.77729e-24 8.15331e-24 8.17625e-24 1.06621e-24 3.31228e-26 -3.77729e-24 -1.02632e-24 3.31228e-26 -4.83137e-25 -1.02632e-24 3.20085e-24 -3.77729e-24 -1.02632e-24 8.17625e-24 3.58591e-24 -1.02632e-24 3.20085e-24 3.58591e-24 9.74167e-25 5.87043e-24 1.15469e-25 -2.15565e-24 9.45444e-24 1.15469e-25 -1.55624e-23 9.45444e-24 5.90873e-23 -2.15565e-24 9.45444e-24 -2.01107e-22 -1.70788e-23 9.45444e-24 5.90873e-23 -1.70788e-23 -1.66147e-22 -1.55624e-23 5.07289e-24 5.90873e-23 -1.37505e-23 5.07289e-24 -2.90446e-24 -1.37505e-23 3.95555e-23 5.90873e-23 -1.37505e-23 -1.66147e-22 -5.16378e-23 -1.37505e-23 3.95555e-23 -5.16378e-23 -1.32902e-22 -2.01107e-22 -1.70788e-23 4.98773e-22 1.98084e-22 -1.70788e-23 -1.66147e-22 1.98084e-22 3.24372e-22 4.98773e-22 1.98084e-22 0 0 1.98084e-22 3.24372e-22 0 0 -1.66147e-22 -5.16378e-23 3.24372e-22 8.5182e-23 -5.16378e-23 -1.32902e-22 8.5182e-23 2.38458e-22 3.24372e-22 8.5182e-23 0 0 8.5182e-23 2.38458e-22 0 0 -2.90446e-24 8.15331e-24 3.95555e-23 -5.94437e-24 8.15331e-24 8.17625e-24 -5.94437e-24 -1.62167e-23 3.95555e-23 -5.94437e-24 -1.32902e-22 1.44239e-23 -5.94437e-24 -1.62167e-23 1.44239e-23 -4.04628e-23 8.17625e-24 3.58591e-24 -1.62167e-23 -1.72489e-23 3.58591e-24 9.74167e-25 -1.72489e-23 -2.12215e-23 -1.62167e-23 -1.72489e-23 -4.04628e-23 1.51799e-22 -1.72489e-23 -2.12215e-23 1.51799e-22 -1.04412e-22 -1.32902e-22 1.44239e-23 2.38458e-22 1.13693e-22 1.44239e-23 -4.04628e-23 1.13693e-22 -2.54928e-23 2.38458e-22 1.13693e-22 0 0 1.13693e-22 -2.54928e-23 0 0 -4.04628e-23 1.51799e-22 -2.54928e-23 -1.50044e-22 1.51799e-22 -1.04412e-22 -1.50044e-22 3.5407e-22 -2.54928e-23 -1.50044e-22 0 0 -1.50044e-22 3.5407e-22 0 0 2.01864e-26 -1.93945e-25 2.5547e-26 6.00611e-25 -1.93945e-25 1.81152e-25 6.00611e-25 -6.08768e-25 2.5547e-26 6.00611e-25 -4.83137e-25 -1.82872e-24 6.00611e-25 -6.08768e-25 -1.82872e-24 2.15373e-24 1.81152e-25 1.37898e-26 -6.08768e-25 -3.39234e-26 1.37898e-26 1.18442e-25 -3.39234e-26 -3.22596e-25 -6.08768e-25 -3.39234e-26 2.15373e-24 -3.62245e-25 -3.39234e-26 -3.22596e-25 -3.62245e-25 1.09709e-24 -4.83137e-25 -1.82872e-24 3.20085e-24 3.82558e-24 -1.82872e-24 2.15373e-24 3.82558e-24 -5.54251e-24 3.20085e-24 3.82558e-24 9.74167e-25 -2.35607e-23 3.82558e-24 -5.54251e-24 -2.35607e-23 2.16826e-23 2.15373e-24 -3.62245e-25 -5.54251e-24 -3.10519e-25 -3.62245e-25 1.09709e-24 -3.10519e-25 -2.84746e-24 -5.54251e-24 -3.10519e-25 2.16826e-23 5.12708e-24 -3.10519e-25 -2.84746e-24 5.12708e-24 5.65308e-24 1.18442e-25 -6.17213e-26 -3.22596e-25 1.50549e-25 -6.17213e-26 9.75139e-26 1.50549e-25 -2.87928e-25 -3.22596e-25 1.50549e-25 1.09709e-24 -7.80827e-25 1.50549e-25 -2.87928e-25 -7.80827e-25 1.6987e-24 9.75139e-26 -1.43153e-25 -2.87928e-25 4.21392e-25 -1.43153e-25 6.94117e-26 4.21392e-25 -1.36316e-25 -2.87928e-25 4.21392e-25 1.6987e-24 -2.02875e-24 4.21392e-25 -1.36316e-25 -2.02875e-24 5.25258e-25 1.09709e-24 -7.80827e-25 -2.84746e-24 -1.02634e-24 -7.80827e-25 1.6987e-24 -1.02634e-24 -3.3318e-24 -2.84746e-24 -1.02634e-24 5.65308e-24 9.79187e-24 -1.02634e-24 -3.3318e-24 9.79187e-24 1.03775e-23 1.6987e-24 -2.02875e-24 -3.3318e-24 3.86686e-24 -2.02875e-24 5.25258e-25 3.86686e-24 -1.38262e-24 -3.3318e-24 3.86686e-24 1.03775e-23 -9.98355e-24 3.86686e-24 -1.38262e-24 -9.98355e-24 -4.91836e-25 9.74167e-25 -2.35607e-23 -2.12215e-23 9.77368e-23 -2.35607e-23 2.16826e-23 9.77368e-23 -8.28634e-23 -2.12215e-23 9.77368e-23 -1.04412e-22 -2.63449e-22 9.77368e-23 -8.28634e-23 -2.63449e-22 1.64212e-22 2.16826e-23 5.12708e-24 -8.28634e-23 -1.24216e-23 5.12708e-24 5.65308e-24 -1.24216e-23 2.00395e-23 -8.28634e-23 -1.24216e-23 1.64212e-22 4.82201e-23 -1.24216e-23 2.00395e-23 4.82201e-23 -1.40222e-22 -1.04412e-22 -2.63449e-22 3.5407e-22 6.62086e-22 -2.63449e-22 1.64212e-22 6.62086e-22 -4.50779e-22 3.5407e-22 6.62086e-22 0 0 6.62086e-22 -4.50779e-22 0 0 1.64212e-22 4.82201e-23 -4.50779e-22 -2.36733e-23 4.82201e-23 -1.40222e-22 -2.36733e-23 6.86687e-22 -4.50779e-22 -2.36733e-23 0 0 -2.36733e-23 6.86687e-22 0 0 5.65308e-24 9.79187e-24 2.00395e-23 -5.37163e-23 9.79187e-24 1.03775e-23 -5.37163e-23 -1.91732e-23 2.00395e-23 -5.37163e-23 -1.40222e-22 9.99409e-23 -5.37163e-23 -1.91732e-23 9.99409e-23 4.38988e-26 1.03775e-23 -9.98355e-24 -1.91732e-23 6.56341e-24 -9.98355e-24 -4.91836e-25 6.56341e-24 5.41757e-23 -1.91732e-23 6.56341e-24 4.38988e-26 -4.0781e-23 6.56341e-24 5.41757e-23 -4.0781e-23 -2.38255e-22 -1.40222e-22 9.99409e-23 6.86687e-22 -6.97893e-22 9.99409e-23 4.38988e-26 -6.97893e-22 2.95285e-22 6.86687e-22 -6.97893e-22 0 0 -6.97893e-22 2.95285e-22 0 0 4.38988e-26 -4.0781e-23 2.95285e-22 -5.17841e-23 -4.0781e-23 -2.38255e-22 -5.17841e-23 4.1864e-22 2.95285e-22 -5.17841e-23 0 0 -5.17841e-23 4.1864e-22 0 0 -2.99363e-31 -5.83513e-30 1.6068e-30 9.13853e-30 -5.83513e-30 5.5612e-31 9.13853e-30 1.80378e-30 1.6068e-30 9.13853e-30 1.42838e-29 -3.39736e-29 9.13853e-30 1.80378e-30 -3.39736e-29 4.43531e-30 5.5612e-31 1.43442e-31 1.80378e-30 -2.01968e-30 1.43442e-31 1.10897e-30 -2.01968e-30 9.56819e-31 1.80378e-30 -2.01968e-30 4.43531e-30 -1.17805e-29 -2.01968e-30 9.56819e-31 -1.17805e-29 -1.45827e-29 1.42838e-29 -3.39736e-29 -6.14631e-29 1.02547e-28 -3.39736e-29 4.43531e-30 1.02547e-28 -6.82148e-30 -6.14631e-29 1.02547e-28 1.7929e-28 -4.50494e-28 1.02547e-28 -6.82148e-30 -4.50494e-28 2.66236e-28 4.43531e-30 -1.17805e-29 -6.82148e-30 4.09074e-29 -1.17805e-29 -1.45827e-29 4.09074e-29 1.10703e-28 -6.82148e-30 4.09074e-29 2.66236e-28 -4.16949e-28 4.09074e-29 1.10703e-28 -4.16949e-28 -3.75929e-28 1.10897e-30 2.26277e-30 9.56819e-31 -6.77704e-30 2.26277e-30 1.15822e-30 -6.77704e-30 -1.27054e-30 9.56819e-31 -6.77704e-30 -1.45827e-29 2.45204e-29 -6.77704e-30 -1.27054e-30 2.45204e-29 -6.23813e-30 1.15822e-30 6.08089e-30 -1.27054e-30 -1.15759e-29 6.08089e-30 -1.81926e-29 -1.15759e-29 3.57466e-29 -1.27054e-30 -1.15759e-29 -6.23813e-30 2.85534e-29 -1.15759e-29 3.57466e-29 2.85534e-29 -1.32837e-28 -1.45827e-29 2.45204e-29 1.10703e-28 -1.18629e-28 2.45204e-29 -6.23813e-30 -1.18629e-28 7.22068e-30 1.10703e-28 -1.18629e-28 -3.75929e-28 6.14247e-28 -1.18629e-28 7.22068e-30 6.14247e-28 -6.03435e-29 -6.23813e-30 2.85534e-29 7.22068e-30 -1.44999e-28 2.85534e-29 -1.32837e-28 -1.44999e-28 4.937e-28 7.22068e-30 -1.44999e-28 -6.03435e-29 6.81526e-28 -1.44999e-28 4.937e-28 6.81526e-28 -1.77474e-27 1.7929e-28 -4.50494e-28 -9.87807e-28 1.59132e-27 -4.50494e-28 2.66236e-28 1.59132e-27 -1.52984e-27 -9.87807e-28 1.59132e-27 2.99601e-27 -7.95557e-27 1.59132e-27 -1.52984e-27 -7.95557e-27 8.05669e-27 2.66236e-28 -4.16949e-28 -1.52984e-27 1.57142e-27 -4.16949e-28 -3.75929e-28 1.57142e-27 1.13135e-27 -1.52984e-27 1.57142e-27 8.05669e-27 -8.05932e-27 1.57142e-27 1.13135e-27 -8.05932e-27 -2.43182e-27 2.99601e-27 -7.95557e-27 -1.87477e-26 2.01674e-26 -7.95557e-27 8.05669e-27 2.01674e-26 -8.78074e-27 -1.87477e-26 2.01674e-26 6.94117e-26 -6.30735e-26 2.01674e-26 -8.78074e-27 -6.30735e-26 1.73923e-26 8.05669e-27 -8.05932e-27 -8.78074e-27 8.73292e-27 -8.05932e-27 -2.43182e-27 8.73292e-27 7.77388e-27 -8.78074e-27 8.73292e-27 1.73923e-26 3.28902e-26 8.73292e-27 7.77388e-27 3.28902e-26 -8.81368e-26 -3.75929e-28 6.14247e-28 1.13135e-27 -1.80249e-27 6.14247e-28 -6.03435e-29 -1.80249e-27 9.5811e-28 1.13135e-27 -1.80249e-27 -2.43182e-27 8.2609e-27 -1.80249e-27 9.5811e-28 8.2609e-27 -7.23886e-27 -6.03435e-29 6.81526e-28 9.5811e-28 -1.63982e-27 6.81526e-28 -1.77474e-27 -1.63982e-27 5.41498e-27 9.5811e-28 -1.63982e-27 -7.23886e-27 6.64332e-27 -1.63982e-27 5.41498e-27 6.64332e-27 -1.92476e-26 -2.43182e-27 8.2609e-27 7.77388e-27 -2.23424e-26 8.2609e-27 -7.23886e-27 -2.23424e-26 1.98869e-26 7.77388e-27 -2.23424e-26 -8.81368e-26 8.63527e-26 -2.23424e-26 1.98869e-26 8.63527e-26 -3.01084e-26 -7.23886e-27 6.64332e-27 1.98869e-26 -3.88098e-27 6.64332e-27 -1.92476e-26 -3.88098e-27 5.14807e-26 1.98869e-26 -3.88098e-27 -3.01084e-26 -2.34597e-27 -3.88098e-27 5.14807e-26 -2.34597e-27 -2.04694e-25 -1.81926e-29 4.26079e-30 3.57466e-29 -1.00985e-29 4.26079e-30 -1.0042e-29 -1.00985e-29 2.31681e-29 3.57466e-29 -1.00985e-29 -1.32837e-28 4.10375e-29 -1.00985e-29 2.31681e-29 4.10375e-29 -8.97038e-29 -1.0042e-29 1.31664e-29 2.31681e-29 -2.70197e-29 1.31664e-29 -1.06949e-30 -2.70197e-29 6.8094e-30 2.31681e-29 -2.70197e-29 -8.97038e-29 8.80622e-29 -2.70197e-29 6.8094e-30 8.80622e-29 -1.64981e-29 -1.32837e-28 4.10375e-29 4.937e-28 -1.63258e-28 4.10375e-29 -8.97038e-29 -1.63258e-28 3.45122e-28 4.937e-28 -1.63258e-28 -1.77474e-27 6.0993e-28 -1.63258e-28 3.45122e-28 6.0993e-28 -1.3056e-27 -8.97038e-29 8.80622e-29 3.45122e-28 -2.55217e-28 8.80622e-29 -1.64981e-29 -2.55217e-28 3.2457e-29 3.45122e-28 -2.55217e-28 -1.3056e-27 1.03614e-27 -2.55217e-28 3.2457e-29 1.03614e-27 -1.29728e-28 -1.06949e-30 -1.13179e-30 6.8094e-30 3.87296e-30 -1.13179e-30 -3.55802e-30 3.87296e-30 7.01985e-30 6.8094e-30 3.87296e-30 -1.64981e-29 -9.81711e-30 3.87296e-30 7.01985e-30 -9.81711e-30 -4.1175e-29 -3.55802e-30 -1.00825e-29 7.01985e-30 1.82812e-29 -1.00825e-29 6.85766e-30 1.82812e-29 -1.29236e-29 7.01985e-30 1.82812e-29 -4.1175e-29 -3.85419e-29 1.82812e-29 -1.29236e-29 -3.85419e-29 3.01296e-29 -1.64981e-29 -9.81711e-30 3.2457e-29 -9.82227e-31 -9.81711e-30 -4.1175e-29 -9.82227e-31 1.75402e-28 3.2457e-29 -9.82227e-31 -1.29728e-28 2.87544e-28 -9.82227e-31 1.75402e-28 2.87544e-28 -5.55735e-28 -4.1175e-29 -3.85419e-29 1.75402e-28 1.26395e-28 -3.85419e-29 3.01296e-29 1.26395e-28 -4.71627e-29 1.75402e-28 1.26395e-28 -5.55735e-28 -3.64583e-28 1.26395e-28 -4.71627e-29 -3.64583e-28 9.19795e-29 -1.77474e-27 6.0993e-28 5.41498e-27 -1.96848e-27 6.0993e-28 -1.3056e-27 -1.96848e-27 5.31169e-27 5.41498e-27 -1.96848e-27 -1.92476e-26 4.47225e-27 -1.96848e-27 5.31169e-27 4.47225e-27 -1.92772e-26 -1.3056e-27 1.03614e-27 5.31169e-27 -3.65779e-27 1.03614e-27 -1.29728e-28 -3.65779e-27 -1.25264e-27 5.31169e-27 -3.65779e-27 -1.92772e-26 1.23625e-26 -3.65779e-27 -1.25264e-27 1.23625e-26 5.52126e-27 -1.92476e-26 4.47225e-27 5.14807e-26 -1.22071e-27 4.47225e-27 -1.92772e-26 -1.22071e-27 4.76093e-26 5.14807e-26 -1.22071e-27 -2.04694e-25 -1.51909e-26 -1.22071e-27 4.76093e-26 -1.51909e-26 -1.81345e-25 -1.92772e-26 1.23625e-26 4.76093e-26 -2.84069e-26 1.23625e-26 5.52126e-27 -2.84069e-26 -2.2085e-26 4.76093e-26 -2.84069e-26 -1.81345e-25 1.2516e-25 -2.84069e-26 -2.2085e-26 1.2516e-25 1.14787e-26 -1.29728e-28 2.87544e-28 -1.25264e-27 2.53819e-28 2.87544e-28 -5.55735e-28 2.53819e-28 1.40146e-27 -1.25264e-27 2.53819e-28 5.52126e-27 -1.96118e-27 2.53819e-28 1.40146e-27 -1.96118e-27 -4.29571e-27 -5.55735e-28 -3.64583e-28 1.40146e-27 8.57761e-28 -3.64583e-28 9.19795e-29 8.57761e-28 -3.50062e-29 1.40146e-27 8.57761e-28 -4.29571e-27 -2.88803e-27 8.57761e-28 -3.50062e-29 -2.88803e-27 9.75082e-28 5.52126e-27 -1.96118e-27 -2.2085e-26 2.69042e-27 -1.96118e-27 -4.29571e-27 2.69042e-27 1.75894e-26 -2.2085e-26 2.69042e-27 1.14787e-26 -3.98783e-26 2.69042e-27 1.75894e-26 -3.98783e-26 -9.2775e-26 -4.29571e-27 -2.88803e-27 1.75894e-26 -1.20424e-27 -2.88803e-27 9.75082e-28 -1.20424e-27 1.14992e-26 1.75894e-26 -1.20424e-27 -9.2775e-26 3.96938e-26 -1.20424e-27 1.14992e-26 3.96938e-26 -3.66297e-26 6.94117e-26 -6.30735e-26 -1.36316e-25 6.13463e-26 -6.30735e-26 1.73923e-26 6.13463e-26 -4.06267e-26 -1.36316e-25 6.13463e-26 5.25258e-25 -4.44161e-25 6.13463e-26 -4.06267e-26 -4.44161e-25 8.60964e-26 1.73923e-26 3.28902e-26 -4.06267e-26 1.32863e-25 3.28902e-26 -8.81368e-26 1.32863e-25 1.47388e-25 -4.06267e-26 1.32863e-25 8.60964e-26 -7.61075e-26 1.32863e-25 1.47388e-25 -7.61075e-26 -8.10279e-25 5.25258e-25 -4.44161e-25 -1.38262e-24 1.32542e-24 -4.44161e-25 8.60964e-26 1.32542e-24 -1.10658e-24 -1.38262e-24 1.32542e-24 -4.91836e-25 -7.9698e-24 1.32542e-24 -1.10658e-24 -7.9698e-24 -5.44579e-24 8.60964e-26 -7.61075e-26 -1.10658e-24 2.55412e-24 -7.61075e-26 -8.10279e-25 2.55412e-24 3.62407e-24 -1.10658e-24 2.55412e-24 -5.44579e-24 -3.08316e-25 2.55412e-24 3.62407e-24 -3.08316e-25 -1.19152e-23 -8.81368e-26 8.63527e-26 1.47388e-25 -2.46137e-26 8.63527e-26 -3.01084e-26 -2.46137e-26 -8.22112e-26 1.47388e-25 -2.46137e-26 -8.10279e-25 3.62918e-25 -2.46137e-26 -8.22112e-26 3.62918e-25 4.30809e-25 -3.01084e-26 -2.34597e-27 -8.22112e-26 1.01005e-25 -2.34597e-27 -2.04694e-25 1.01005e-25 6.10171e-25 -8.22112e-26 1.01005e-25 4.30809e-25 2.43265e-26 1.01005e-25 6.10171e-25 2.43265e-26 -2.30733e-24 -8.10279e-25 