# vtk DataFile Version 3.0
#This file was generated by the deal.II library on 2022/11/2 at 18:43:03
ASCII
DATASET UNSTRUCTURED_GRID

POINTS 4096 double
0 0.5 0
0.03125 0.5 0
0 0.53125 0
0.03125 0.53125 0
0.03125 0.5 0
0.0625 0.5 0
0.03125 0.53125 0
0.0625 0.53125 0
0 0.53125 0
0.03125 0.53125 0
0 0.5625 0
0.03125 0.5625 0
0.03125 0.53125 0
0.0625 0.53125 0
0.03125 0.5625 0
0.0625 0.5625 0
0.0625 0.5 0
0.09375 0.5 0
0.0625 0.53125 0
0.09375 0.53125 0
0.09375 0.5 0
0.125 0.5 0
0.09375 0.53125 0
0.125 0.53125 0
0.0625 0.53125 0
0.09375 0.53125 0
0.0625 0.5625 0
0.09375 0.5625 0
0.09375 0.53125 0
0.125 0.53125 0
0.09375 0.5625 0
0.125 0.5625 0
0 0.5625 0
0.03125 0.5625 0
0 0.59375 0
0.03125 0.59375 0
0.03125 0.5625 0
0.0625 0.5625 0
0.03125 0.59375 0
0.0625 0.59375 0
0 0.59375 0
0.03125 0.59375 0
0 0.625 0
0.03125 0.625 0
0.03125 0.59375 0
0.0625 0.59375 0
0.03125 0.625 0
0.0625 0.625 0
0.0625 0.5625 0
0.09375 0.5625 0
0.0625 0.59375 0
0.09375 0.59375 0
0.09375 0.5625 0
0.125 0.5625 0
0.09375 0.59375 0
0.125 0.59375 0
0.0625 0.59375 0
0.09375 0.59375 0
0.0625 0.625 0
0.09375 0.625 0
0.09375 0.59375 0
0.125 0.59375 0
0.09375 0.625 0
0.125 0.625 0
0.125 0.5 0
0.15625 0.5 0
0.125 0.53125 0
0.15625 0.53125 0
0.15625 0.5 0
0.1875 0.5 0
0.15625 0.53125 0
0.1875 0.53125 0
0.125 0.53125 0
0.15625 0.53125 0
0.125 0.5625 0
0.15625 0.5625 0
0.15625 0.53125 0
0.1875 0.53125 0
0.15625 0.5625 0
0.1875 0.5625 0
0.1875 0.5 0
0.21875 0.5 0
0.1875 0.53125 0
0.21875 0.53125 0
0.21875 0.5 0
0.25 0.5 0
0.21875 0.53125 0
0.25 0.53125 0
0.1875 0.53125 0
0.21875 0.53125 0
0.1875 0.5625 0
0.21875 0.5625 0
0.21875 0.53125 0
0.25 0.53125 0
0.21875 0.5625 0
0.25 0.5625 0
0.125 0.5625 0
0.15625 0.5625 0
0.125 0.59375 0
0.15625 0.59375 0
0.15625 0.5625 0
0.1875 0.5625 0
0.15625 0.59375 0
0.1875 0.59375 0
0.125 0.59375 0
0.15625 0.59375 0
0.125 0.625 0
0.15625 0.625 0
0.15625 0.59375 0
0.1875 0.59375 0
0.15625 0.625 0
0.1875 0.625 0
0.1875 0.5625 0
0.21875 0.5625 0
0.1875 0.59375 0
0.21875 0.59375 0
0.21875 0.5625 0
0.25 0.5625 0
0.21875 0.59375 0
0.25 0.59375 0
0.1875 0.59375 0
0.21875 0.59375 0
0.1875 0.625 0
0.21875 0.625 0
0.21875 0.59375 0
0.25 0.59375 0
0.21875 0.625 0
0.25 0.625 0
0 0.625 0
0.03125 0.625 0
0 0.65625 0
0.03125 0.65625 0
0.03125 0.625 0
0.0625 0.625 0
0.03125 0.65625 0
0.0625 0.65625 0
0 0.65625 0
0.03125 0.65625 0
0 0.6875 0
0.03125 0.6875 0
0.03125 0.65625 0
0.0625 0.65625 0
0.03125 0.6875 0
0.0625 0.6875 0
0.0625 0.625 0
0.09375 0.625 0
0.0625 0.65625 0
0.09375 0.65625 0
0.09375 0.625 0
0.125 0.625 0
0.09375 0.65625 0
0.125 0.65625 0
0.0625 0.65625 0
0.09375 0.65625 0
0.0625 0.6875 0
0.09375 0.6875 0
0.09375 0.65625 0
0.125 0.65625 0
0.09375 0.6875 0
0.125 0.6875 0
0 0.6875 0
0.03125 0.6875 0
0 0.71875 0
0.03125 0.71875 0
0.03125 0.6875 0
0.0625 0.6875 0
0.03125 0.71875 0
0.0625 0.71875 0
0 0.71875 0
0.03125 0.71875 0
0 0.75 0
0.03125 0.75 0
0.03125 0.71875 0
0.0625 0.71875 0
0.03125 0.75 0
0.0625 0.75 0
0.0625 0.6875 0
0.09375 0.6875 0
0.0625 0.71875 0
0.09375 0.71875 0
0.09375 0.6875 0
0.125 0.6875 0
0.09375 0.71875 0
0.125 0.71875 0
0.0625 0.71875 0
0.09375 0.71875 0
0.0625 0.75 0
0.09375 0.75 0
0.09375 0.71875 0
0.125 0.71875 0
0.09375 0.75 0
0.125 0.75 0
0.125 0.625 0
0.15625 0.625 0
0.125 0.65625 0
0.15625 0.65625 0
0.15625 0.625 0
0.1875 0.625 0
0.15625 0.65625 0
0.1875 0.65625 0
0.125 0.65625 0
0.15625 0.65625 0
0.125 0.6875 0
0.15625 0.6875 0
0.15625 0.65625 0
0.1875 0.65625 0
0.15625 0.6875 0
0.1875 0.6875 0
0.1875 0.625 0
0.21875 0.625 0
0.1875 0.65625 0
0.21875 0.65625 0
0.21875 0.625 0
0.25 0.625 0
0.21875 0.65625 0
0.25 0.65625 0
0.1875 0.65625 0
0.21875 0.65625 0
0.1875 0.6875 0
0.21875 0.6875 0
0.21875 0.65625 0
0.25 0.65625 0
0.21875 0.6875 0
0.25 0.6875 0
0.125 0.6875 0
0.15625 0.6875 0
0.125 0.71875 0
0.15625 0.71875 0
0.15625 0.6875 0
0.1875 0.6875 0
0.15625 0.71875 0
0.1875 0.71875 0
0.125 0.71875 0
0.15625 0.71875 0
0.125 0.75 0
0.15625 0.75 0
0.15625 0.71875 0
0.1875 0.71875 0
0.15625 0.75 0
0.1875 0.75 0
0.1875 0.6875 0
0.21875 0.6875 0
0.1875 0.71875 0
0.21875 0.71875 0
0.21875 0.6875 0
0.25 0.6875 0
0.21875 0.71875 0
0.25 0.71875 0
0.1875 0.71875 0
0.21875 0.71875 0
0.1875 0.75 0
0.21875 0.75 0
0.21875 0.71875 0
0.25 0.71875 0
0.21875 0.75 0
0.25 0.75 0
0.25 0.5 0
0.28125 0.5 0
0.25 0.53125 0
0.28125 0.53125 0
0.28125 0.5 0
0.3125 0.5 0
0.28125 0.53125 0
0.3125 0.53125 0
0.25 0.53125 0
0.28125 0.53125 0
0.25 0.5625 0
0.28125 0.5625 0
0.28125 0.53125 0
0.3125 0.53125 0
0.28125 0.5625 0
0.3125 0.5625 0
0.3125 0.5 0
0.34375 0.5 0
0.3125 0.53125 0
0.34375 0.53125 0
0.34375 0.5 0
0.375 0.5 0
0.34375 0.53125 0
0.375 0.53125 0
0.3125 0.53125 0
0.34375 0.53125 0
0.3125 0.5625 0
0.34375 0.5625 0
0.34375 0.53125 0
0.375 0.53125 0
0.34375 0.5625 0
0.375 0.5625 0
0.25 0.5625 0
0.28125 0.5625 0
0.25 0.59375 0
0.28125 0.59375 0
0.28125 0.5625 0
0.3125 0.5625 0
0.28125 0.59375 0
0.3125 0.59375 0
0.25 0.59375 0
0.28125 0.59375 0
0.25 0.625 0
0.28125 0.625 0
0.28125 0.59375 0
0.3125 0.59375 0
0.28125 0.625 0
0.3125 0.625 0
0.3125 0.5625 0
0.34375 0.5625 0
0.3125 0.59375 0
0.34375 0.59375 0
0.34375 0.5625 0
0.375 0.5625 0
0.34375 0.59375 0
0.375 0.59375 0
0.3125 0.59375 0
0.34375 0.59375 0
0.3125 0.625 0
0.34375 0.625 0
0.34375 0.59375 0
0.375 0.59375 0
0.34375 0.625 0
0.375 0.625 0
0.375 0.5 0
0.40625 0.5 0
0.375 0.53125 0
0.40625 0.53125 0
0.40625 0.5 0
0.4375 0.5 0
0.40625 0.53125 0
0.4375 0.53125 0
0.375 0.53125 0
0.40625 0.53125 0
0.375 0.5625 0
0.40625 0.5625 0
0.40625 0.53125 0
0.4375 0.53125 0
0.40625 0.5625 0
0.4375 0.5625 0
0.4375 0.5 0
0.46875 0.5 0
0.4375 0.53125 0
0.46875 0.53125 0
0.46875 0.5 0
0.5 0.5 0
0.46875 0.53125 0
0.5 0.53125 0
0.4375 0.53125 0
0.46875 0.53125 0
0.4375 0.5625 0
0.46875 0.5625 0
0.46875 0.53125 0
0.5 0.53125 0
0.46875 0.5625 0
0.5 0.5625 0
0.375 0.5625 0
0.40625 0.5625 0
0.375 0.59375 0
0.40625 0.59375 0
0.40625 0.5625 0
0.4375 0.5625 0
0.40625 0.59375 0
0.4375 0.59375 0
0.375 0.59375 0
0.40625 0.59375 0
0.375 0.625 0
0.40625 0.625 0
0.40625 0.59375 0
0.4375 0.59375 0
0.40625 0.625 0
0.4375 0.625 0
0.4375 0.5625 0
0.46875 0.5625 0
0.4375 0.59375 0
0.46875 0.59375 0
0.46875 0.5625 0
0.5 0.5625 0
0.46875 0.59375 0
0.5 0.59375 0
0.4375 0.59375 0
0.46875 0.59375 0
0.4375 0.625 0
0.46875 0.625 0
0.46875 0.59375 0
0.5 0.59375 0
0.46875 0.625 0
0.5 0.625 0
0.25 0.625 0
0.28125 0.625 0
0.25 0.65625 0
0.28125 0.65625 0
0.28125 0.625 0
0.3125 0.625 0
0.28125 0.65625 0
0.3125 0.65625 0
0.25 0.65625 0
0.28125 0.65625 0
0.25 0.6875 0
0.28125 0.6875 0
0.28125 0.65625 0
0.3125 0.65625 0
0.28125 0.6875 0
0.3125 0.6875 0
0.3125 0.625 0
0.34375 0.625 0
0.3125 0.65625 0
0.34375 0.65625 0
0.34375 0.625 0
0.375 0.625 0
0.34375 0.65625 0
0.375 0.65625 0
0.3125 0.65625 0
0.34375 0.65625 0
0.3125 0.6875 0
0.34375 0.6875 0
0.34375 0.65625 0
0.375 0.65625 0
0.34375 0.6875 0
0.375 0.6875 0
0.25 0.6875 0
0.28125 0.6875 0
0.25 0.71875 0
0.28125 0.71875 0
0.28125 0.6875 0
0.3125 0.6875 0
0.28125 0.71875 0
0.3125 0.71875 0
0.25 0.71875 0
0.28125 0.71875 0
0.25 0.75 0
0.28125 0.75 0
0.28125 0.71875 0
0.3125 0.71875 0
0.28125 0.75 0
0.3125 0.75 0
0.3125 0.6875 0
0.34375 0.6875 0
0.3125 0.71875 0
0.34375 0.71875 0
0.34375 0.6875 0
0.375 0.6875 0
0.34375 0.71875 0
0.375 0.71875 0
0.3125 0.71875 0
0.34375 0.71875 0
0.3125 0.75 0
0.34375 0.75 0
0.34375 0.71875 0
0.375 0.71875 0
0.34375 0.75 0
0.375 0.75 0
0.375 0.625 0
0.40625 0.625 0
0.375 0.65625 0
0.40625 0.65625 0
0.40625 0.625 0
0.4375 0.625 0
0.40625 0.65625 0
0.4375 0.65625 0
0.375 0.65625 0
0.40625 0.65625 0
0.375 0.6875 0
0.40625 0.6875 0
0.40625 0.65625 0
0.4375 0.65625 0
0.40625 0.6875 0
0.4375 0.6875 0
0.4375 0.625 0
0.46875 0.625 0
0.4375 0.65625 0
0.46875 0.65625 0
0.46875 0.625 0
0.5 0.625 0
0.46875 0.65625 0
0.5 0.65625 0
0.4375 0.65625 0
0.46875 0.65625 0
0.4375 0.6875 0
0.46875 0.6875 0
0.46875 0.65625 0
0.5 0.65625 0
0.46875 0.6875 0
0.5 0.6875 0
0.375 0.6875 0
0.40625 0.6875 0
0.375 0.71875 0
0.40625 0.71875 0
0.40625 0.6875 0
0.4375 0.6875 0
0.40625 0.71875 0
0.4375 0.71875 0
0.375 0.71875 0
0.40625 0.71875 0
0.375 0.75 0
0.40625 0.75 0
0.40625 0.71875 0
0.4375 0.71875 0
0.40625 0.75 0
0.4375 0.75 0
0.4375 0.6875 0
0.46875 0.6875 0
0.4375 0.71875 0
0.46875 0.71875 0
0.46875 0.6875 0
0.5 0.6875 0
0.46875 0.71875 0
0.5 0.71875 0
0.4375 0.71875 0
0.46875 0.71875 0
0.4375 0.75 0
0.46875 0.75 0
0.46875 0.71875 0
0.5 0.71875 0
0.46875 0.75 0
0.5 0.75 0
0 0.75 0
0.03125 0.75 0
0 0.78125 0
0.03125 0.78125 0
0.03125 0.75 0
0.0625 0.75 0
0.03125 0.78125 0
0.0625 0.78125 0
0 0.78125 0
0.03125 0.78125 0
0 0.8125 0
0.03125 0.8125 0
0.03125 0.78125 0
0.0625 0.78125 0
0.03125 0.8125 0
0.0625 0.8125 0
0.0625 0.75 0
0.09375 0.75 0
0.0625 0.78125 0
0.09375 0.78125 0
0.09375 0.75 0
0.125 0.75 0
0.09375 0.78125 0
0.125 0.78125 0
0.0625 0.78125 0
0.09375 0.78125 0
0.0625 0.8125 0
0.09375 0.8125 0
0.09375 0.78125 0
0.125 0.78125 0
0.09375 0.8125 0
0.125 0.8125 0
0 0.8125 0
0.03125 0.8125 0
0 0.84375 0
0.03125 0.84375 0
0.03125 0.8125 0
0.0625 0.8125 0
0.03125 0.84375 0
0.0625 0.84375 0
0 0.84375 0
0.03125 0.84375 0
0 0.875 0
0.03125 0.875 0
0.03125 0.84375 0
0.0625 0.84375 0
0.03125 0.875 0
0.0625 0.875 0
0.0625 0.8125 0
0.09375 0.8125 0
0.0625 0.84375 0
0.09375 0.84375 0
0.09375 0.8125 0
0.125 0.8125 0
0.09375 0.84375 0
0.125 0.84375 0
0.0625 0.84375 0
0.09375 0.84375 0
0.0625 0.875 0
0.09375 0.875 0
0.09375 0.84375 0
0.125 0.84375 0
0.09375 0.875 0
0.125 0.875 0
0.125 0.75 0
0.15625 0.75 0
0.125 0.78125 0
0.15625 0.78125 0
0.15625 0.75 0
0.1875 0.75 0
0.15625 0.78125 0
0.1875 0.78125 0
0.125 0.78125 0
0.15625 0.78125 0
0.125 0.8125 0
0.15625 0.8125 0
0.15625 0.78125 0
0.1875 0.78125 0
0.15625 0.8125 0
0.1875 0.8125 0
0.1875 0.75 0
0.21875 0.75 0
0.1875 0.78125 0
0.21875 0.78125 0
0.21875 0.75 0
0.25 0.75 0
0.21875 0.78125 0
0.25 0.78125 0
0.1875 0.78125 0
0.21875 0.78125 0
0.1875 0.8125 0
0.21875 0.8125 0
0.21875 0.78125 0
0.25 0.78125 0
0.21875 0.8125 0
0.25 0.8125 0
0.125 0.8125 0
0.15625 0.8125 0
0.125 0.84375 0
0.15625 0.84375 0
0.15625 0.8125 0
[...]
POINT_DATA 4096
SCALARS x_dis double 1
LOOKUP_TABLE default
1.54476e-13 2.15426e-13 -1.02083e-12 -7.61195e-13 2.15426e-13 2.39439e-13 -7.61195e-13 -8.35547e-13 -1.02083e-12 -7.61195e-13 6.19979e-13 1.63602e-12 -7.61195e-13 -8.35547e-13 1.63602e-12 2.89677e-12 2.39439e-13 2.70381e-13 -8.35547e-13 -9.40541e-13 2.70381e-13 2.94394e-13 -9.40541e-13 -1.01793e-12 -8.35547e-13 -9.40541e-13 2.89677e-12 3.15437e-12 -9.40541e-13 -1.01793e-12 3.15437e-12 3.31924e-12 6.19979e-13 1.63602e-12 -7.56024e-12 -4.83127e-12 1.63602e-12 2.89677e-12 -4.83127e-12 -8.57704e-12 -7.56024e-12 -4.83127e-12 -1.92873e-11 1.51278e-13 -4.83127e-12 -8.57704e-12 1.51278e-13 2.45446e-11 2.89677e-12 3.15437e-12 -8.57704e-12 -9.35862e-12 3.15437e-12 3.31924e-12 -9.35862e-12 -9.61245e-12 -8.57704e-12 -9.35862e-12 2.45446e-11 2.40924e-11 -9.35862e-12 -9.61245e-12 2.40924e-11 2.35282e-11 2.94394e-13 2.74639e-13 -1.01793e-12 -9.46626e-13 2.74639e-13 2.77874e-13 -9.46626e-13 -9.65022e-13 -1.01793e-12 -9.46626e-13 3.31924e-12 3.13529e-12 -9.46626e-13 -9.65022e-13 3.13529e-12 3.1747e-12 2.77874e-13 2.78843e-13 -9.65022e-13 -9.65923e-13 2.78843e-13 2.78031e-13 -9.65923e-13 -9.63231e-13 -9.65022e-13 -9.65923e-13 3.1747e-12 3.18006e-12 -9.65923e-13 -9.63231e-13 3.18006e-12 3.17342e-12 3.31924e-12 3.13529e-12 -9.61245e-12 -9.15008e-12 3.13529e-12 3.1747e-12 -9.15008e-12 -9.28696e-12 -9.61245e-12 -9.15008e-12 2.35282e-11 2.28492e-11 -9.15008e-12 -9.28696e-12 2.28492e-11 2.30637e-11 3.1747e-12 3.18006e-12 -9.28696e-12 -9.29232e-12 3.18006e-12 3.17342e-12 -9.29232e-12 -9.27422e-12 -9.28696e-12 -9.29232e-12 2.30637e-11 2.30266e-11 -9.29232e-12 -9.27422e-12 2.30266e-11 2.30266e-11 -1.92873e-11 1.51278e-13 -8.1312e-12 2.05008e-11 1.51278e-13 2.45446e-11 2.05008e-11 -4.5982e-11 -8.1312e-12 2.05008e-11 -6.03189e-10 -3.12621e-10 2.05008e-11 -4.5982e-11 -3.12621e-10 2.26934e-11 2.45446e-11 2.40924e-11 -4.5982e-11 -4.36956e-11 2.40924e-11 2.35282e-11 -4.36956e-11 -3.61034e-11 -4.5982e-11 -4.36956e-11 2.26934e-11 -2.14909e-11 -4.36956e-11 -3.61034e-11 -2.14909e-11 -6.01741e-11 -6.03189e-10 -3.12621e-10 8.72104e-10 1.27065e-09 -3.12621e-10 2.26934e-11 1.27065e-09 5.59012e-10 8.72104e-10 1.27065e-09 -1.0153e-08 -7.32524e-09 1.27065e-09 5.59012e-10 -7.32524e-09 -4.30513e-09 2.26934e-11 -2.14909e-11 5.59012e-10 6.9147e-10 -2.14909e-11 -6.01741e-11 6.9147e-10 8.34782e-10 5.59012e-10 6.9147e-10 -4.30513e-09 -4.57174e-09 6.9147e-10 8.34782e-10 -4.57174e-09 -5.24855e-09 2.35282e-11 2.28492e-11 -3.61034e-11 -3.69504e-11 2.28492e-11 2.30637e-11 -3.69504e-11 -3.71932e-11 -3.61034e-11 -3.69504e-11 -6.01741e-11 -5.13766e-11 -3.69504e-11 -3.71932e-11 -5.13766e-11 -5.25525e-11 2.30637e-11 2.30266e-11 -3.71932e-11 -3.70727e-11 2.30266e-11 2.30266e-11 -3.70727e-11 -3.70763e-11 -3.71932e-11 -3.70727e-11 -5.25525e-11 -5.3109e-11 -3.70727e-11 -3.70763e-11 -5.3109e-11 -5.28583e-11 -6.01741e-11 -5.13766e-11 8.34782e-10 7.94038e-10 -5.13766e-11 -5.25525e-11 7.94038e-10 7.97297e-10 8.34782e-10 7.94038e-10 -5.24855e-09 -5.1155e-09 7.94038e-10 7.97297e-10 -5.1155e-09 -5.11278e-09 -5.25525e-11 -5.3109e-11 7.97297e-10 7.98111e-10 -5.3109e-11 -5.28583e-11 7.98111e-10 7.9819e-10 7.97297e-10 7.98111e-10 -5.11278e-09 -5.12482e-09 7.98111e-10 7.9819e-10 -5.12482e-09 -5.12317e-09 2.78031e-13 2.783e-13 -9.63231e-13 -9.64453e-13 2.783e-13 2.78242e-13 -9.64453e-13 -9.64089e-13 -9.63231e-13 -9.64453e-13 3.17342e-12 3.17573e-12 -9.64453e-13 -9.64089e-13 3.17573e-12 3.1752e-12 2.78242e-13 2.78256e-13 -9.64089e-13 -9.64178e-13 2.78256e-13 2.7822e-13 -9.64178e-13 -9.64157e-13 -9.64089e-13 -9.64178e-13 3.1752e-12 3.17533e-12 -9.64178e-13 -9.64157e-13 3.17533e-12 3.17523e-12 3.17342e-12 3.17573e-12 -9.27422e-12 -9.28164e-12 3.17573e-12 3.1752e-12 -9.28164e-12 -9.27978e-12 -9.27422e-12 -9.28164e-12 2.30266e-11 2.30267e-11 -9.28164e-12 -9.27978e-12 2.30267e-11 2.30264e-11 3.1752e-12 3.17533e-12 -9.27978e-12 -9.28019e-12 3.17533e-12 3.17523e-12 -9.28019e-12 -9.28003e-12 -9.27978e-12 -9.28019e-12 2.30264e-11 2.30272e-11 -9.28019e-12 -9.28003e-12 2.30272e-11 2.30264e-11 2.7822e-13 2.78411e-13 -9.64157e-13 -9.64104e-13 2.78411e-13 2.77827e-13 -9.64104e-13 -9.64033e-13 -9.64157e-13 -9.64104e-13 3.17523e-12 3.17545e-12 -9.64104e-13 -9.64033e-13 3.17545e-12 3.17484e-12 2.77827e-13 2.77177e-13 -9.64033e-13 -9.68574e-13 2.77177e-13 2.54938e-13 -9.68574e-13 -9.67305e-13 -9.64033e-13 -9.68574e-13 3.17484e-12 3.17538e-12 -9.68574e-13 -9.67305e-13 3.17538e-12 3.17368e-12 3.17523e-12 3.17545e-12 -9.28003e-12 -9.28018e-12 3.17545e-12 3.17484e-12 -9.28018e-12 -9.27995e-12 -9.28003e-12 -9.28018e-12 2.30264e-11 2.30269e-11 -9.28018e-12 -9.27995e-12 2.30269e-11 2.30266e-11 3.17484e-12 3.17538e-12 -9.27995e-12 -9.28042e-12 3.17538e-12 3.17368e-12 -9.28042e-12 -9.28087e-12 -9.27995e-12 -9.28042e-12 2.30266e-11 2.30268e-11 -9.28042e-12 -9.28087e-12 2.30268e-11 2.30268e-11 2.30266e-11 2.30267e-11 -3.70763e-11 -3.70809e-11 2.30267e-11 2.30264e-11 -3.70809e-11 -3.70806e-11 -3.70763e-11 -3.70809e-11 -5.28583e-11 -5.29232e-11 -3.70809e-11 -3.70806e-11 -5.29232e-11 -5.29199e-11 2.30264e-11 2.30272e-11 -3.70806e-11 -3.70801e-11 2.30272e-11 2.30264e-11 -3.70801e-11 -3.70801e-11 -3.70806e-11 -3.70801e-11 -5.29199e-11 -5.29132e-11 -3.70801e-11 -3.70801e-11 -5.29132e-11 -5.2918e-11 -5.28583e-11 -5.29232e-11 7.9819e-10 7.97995e-10 -5.29232e-11 -5.29199e-11 7.97995e-10 7.98056e-10 7.9819e-10 7.97995e-10 -5.12317e-09 -5.12224e-09 7.97995e-10 7.98056e-10 -5.12224e-09 -5.1229e-09 -5.29199e-11 -5.29132e-11 7.98056e-10 7.98058e-10 -5.29132e-11 -5.2918e-11 7.98058e-10 7.98048e-10 7.98056e-10 7.98058e-10 -5.1229e-09 -5.12268e-09 7.98058e-10 7.98048e-10 -5.12268e-09 -5.12272e-09 2.30264e-11 2.30269e-11 -3.70801e-11 -3.70803e-11 2.30269e-11 2.30266e-11 -3.70803e-11 -3.70801e-11 -3.70801e-11 -3.70803e-11 -5.2918e-11 -5.29157e-11 -3.70803e-11 -3.70801e-11 -5.29157e-11 -5.29166e-11 2.30266e-11 2.30268e-11 -3.70801e-11 -3.70803e-11 2.30268e-11 2.30268e-11 -3.70803e-11 -3.70802e-11 -3.70801e-11 -3.70803e-11 -5.29166e-11 -5.29163e-11 -3.70803e-11 -3.70802e-11 -5.29163e-11 -5.29164e-11 -5.2918e-11 -5.29157e-11 7.98048e-10 7.98053e-10 -5.29157e-11 -5.29166e-11 7.98053e-10 7.98051e-10 7.98048e-10 7.98053e-10 -5.12272e-09 -5.12272e-09 7.98053e-10 7.98051e-10 -5.12272e-09 -5.12271e-09 -5.29166e-11 -5.29163e-11 7.98051e-10 7.98052e-10 -5.29163e-11 -5.29164e-11 7.98052e-10 7.98052e-10 7.98051e-10 7.98052e-10 -5.12271e-09 -5.12272e-09 7.98052e-10 7.98052e-10 -5.12272e-09 -5.12272e-09 -1.0153e-08 -7.32524e-09 1.44069e-08 2.15883e-08 -7.32524e-09 -4.30513e-09 2.15883e-08 2.06367e-08 1.44069e-08 2.15883e-08 -1.11114e-07 -8.91278e-08 2.15883e-08 2.06367e-08 -8.91278e-08 -8.39246e-08 -4.30513e-09 -4.57174e-09 2.06367e-08 2.07146e-08 -4.57174e-09 -5.24855e-09 2.07146e-08 2.18135e-08 2.06367e-08 2.07146e-08 -8.39246e-08 -7.95363e-08 2.07146e-08 2.18135e-08 -7.95363e-08 -8.41112e-08 -1.11114e-07 -8.91278e-08 3.9613e-09 1.17706e-07 -8.91278e-08 -8.39246e-08 1.17706e-07 2.58187e-07 3.9613e-09 1.17706e-07 -6.15516e-07 -8.72641e-08 1.17706e-07 2.58187e-07 -8.72641e-08 -4.30328e-07 -8.39246e-08 -7.95363e-08 2.58187e-07 2.44513e-07 -7.95363e-08 -8.41112e-08 2.44513e-07 2.37686e-07 2.58187e-07 2.44513e-07 -4.30328e-07 -4.67026e-07 2.44513e-07 2.37686e-07 -4.67026e-07 -4.56994e-07 -5.24855e-09 -5.1155e-09 2.18135e-08 2.15196e-08 -5.1155e-09 -5.11278e-09 2.15196e-08 2.15147e-08 2.18135e-08 2.15196e-08 -8.41112e-08 -8.39616e-08 2.15196e-08 2.15147e-08 -8.39616e-08 -8.36996e-08 -5.11278e-09 -5.12482e-09 2.15147e-08 2.15115e-08 -5.12482e-09 -5.12317e-09 2.15115e-08 2.15218e-08 2.15147e-08 2.15115e-08 -8.36996e-08 -8.37538e-08 2.15115e-08 2.15218e-08 -8.37538e-08 -8.37896e-08 -8.41112e-08 -8.39616e-08 2.37686e-07 2.37641e-07 -8.39616e-08 -8.36996e-08 2.37641e-07 2.38161e-07 2.37686e-07 2.37641e-07 -4.56994e-07 -4.59122e-07 2.37641e-07 2.38161e-07 -4.59122e-07 -4.58829e-07 -8.36996e-08 -8.37538e-08 2.38161e-07 2.37873e-07 -8.37538e-08 -8.37896e-08 2.37873e-07 2.37968e-07 2.38161e-07 2.37873e-07 -4.58829e-07 -4.58821e-07 2.37873e-07 2.37968e-07 -4.58821e-07 -4.58909e-07 -6.15516e-07 -8.72641e-08 -3.72725e-06 -2.89428e-06 -8.72641e-08 -4.30328e-07 -2.89428e-06 -7.63623e-07 -3.72725e-06 -2.89428e-06 -6.9108e-07 6.39119e-06 -2.89428e-06 -7.63623e-07 6.39119e-06 8.65021e-06 -4.30328e-07 -4.67026e-07 -7.63623e-07 -1.58418e-07 -4.67026e-07 -4.56994e-07 -1.58418e-07 -2.30977e-07 -7.63623e-07 -1.58418e-07 8.65021e-06 9.33651e-06 -1.58418e-07 -2.30977e-07 9.33651e-06 8.91246e-06 -6.9108e-07 6.39119e-06 -6.32628e-05 -1.59245e-05 6.39119e-06 8.65021e-06 -1.59245e-05 -1.22062e-05 -6.32628e-05 -1.59245e-05 -0.00017 -0.00017 -1.59245e-05 -1.22062e-05 -0.00017 -0.00017 8.65021e-06 9.33651e-06 -1.22062e-05 -1.32327e-05 9.33651e-06 8.91246e-06 -1.32327e-05 -1.34138e-05 -1.22062e-05 -1.32327e-05 -0.00017 -0.00017 -1.32327e-05 -1.34138e-05 -0.00017 -0.00017 -4.56994e-07 -4.59122e-07 -2.30977e-07 -3.1626e-07 -4.59122e-07 -4.58829e-07 -3.1626e-07 -2.88049e-07 -2.30977e-07 -3.1626e-07 8.91246e-06 8.92576e-06 -3.1626e-07 -2.88049e-07 8.92576e-06 8.95745e-06 -4.58829e-07 -4.58821e-07 -2.88049e-07 -2.9001e-07 -4.58821e-07 -4.58909e-07 -2.9001e-07 -2.9213e-07 -2.88049e-07 -2.9001e-07 8.95745e-06 8.94263e-06 -2.9001e-07 -2.9213e-07 8.94263e-06 8.94657e-06 8.91246e-06 8.92576e-06 -1.34138e-05 -1.33477e-05 8.92576e-06 8.95745e-06 -1.33477e-05 -1.33587e-05 -1.34138e-05 -1.33477e-05 -0.00017 -0.00017 -1.33477e-05 -1.33587e-05 -0.00017 -0.00017 8.95745e-06 8.94263e-06 -1.33587e-05 -1.33588e-05 8.94263e-06 8.94657e-06 -1.33588e-05 -1.33582e-05 -1.33587e-05 -1.33588e-05 -0.00017 -0.00017 -1.33588e-05 -1.33582e-05 -0.00017 -0.00017 -5.12317e-09 -5.12224e-09 2.15218e-08 2.15155e-08 -5.12224e-09 -5.1229e-09 2.15155e-08 2.15176e-08 2.15218e-08 2.15155e-08 -8.37896e-08 -8.37612e-08 2.15155e-08 2.15176e-08 -8.37612e-08 -8.37723e-08 -5.1229e-09 -5.12268e-09 2.15176e-08 2.15172e-08 -5.12268e-09 -5.12272e-09 2.15172e-08 2.15172e-08 2.15176e-08 2.15172e-08 -8.37723e-08 -8.37695e-08 2.15172e-08 2.15172e-08 -8.37695e-08 -8.37698e-08 -8.37896e-08 -8.37612e-08 2.37968e-07 2.37947e-07 -8.37612e-08 -8.37723e-08 2.37947e-07 2.37948e-07 2.37968e-07 2.37947e-07 -4.58909e-07 -4.58848e-07 2.37947e-07 2.37948e-07 -4.58848e-07 -4.58874e-07 -8.37723e-08 -8.37695e-08 2.37948e-07 2.3795e-07 -8.37695e-08 -8.37698e-08 2.3795e-07 2.37949e-07 2.37948e-07 2.3795e-07 -4.58874e-07 -4.58866e-07 2.3795e-07 2.37949e-07 -4.58866e-07 -4.58868e-07 -5.12272e-09 -5.12272e-09 2.15172e-08 2.15172e-08 -5.12272e-09 -5.12271e-09 2.15172e-08 2.15172e-08 2.15172e-08 2.15172e-08 -8.37698e-08 -8.377e-08 2.15172e-08 2.15172e-08 -8.377e-08 -8.37699e-08 -5.12271e-09 -5.12272e-09 2.15172e-08 2.15172e-08 -5.12272e-09 -5.12272e-09 2.15172e-08 2.15172e-08 2.15172e-08 2.15172e-08 -8.37699e-08 -8.37699e-08 2.15172e-08 2.15172e-08 -8.37699e-08 -8.37699e-08 -8.37698e-08 -8.377e-08 2.37949e-07 2.37949e-07 -8.377e-08 -8.37699e-08 2.37949e-07 2.37949e-07 2.37949e-07 2.37949e-07 -4.58868e-07 -4.58868e-07 2.37949e-07 2.37949e-07 -4.58868e-07 -4.58868e-07 -8.37699e-08 -8.37699e-08 2.37949e-07 2.37949e-07 -8.37699e-08 -8.37699e-08 2.37949e-07 2.37949e-07 2.37949e-07 2.37949e-07 -4.58868e-07 -4.58868e-07 2.37949e-07 2.37949e-07 -4.58868e-07 -4.58868e-07 -4.58909e-07 -4.58848e-07 -2.9213e-07 -2.90931e-07 -4.58848e-07 -4.58874e-07 -2.90931e-07 -2.91316e-07 -2.9213e-07 -2.90931e-07 8.94657e-06 8.94598e-06 -2.90931e-07 -2.91316e-07 8.94598e-06 8.94594e-06 -4.58874e-07 -4.58866e-07 -2.91316e-07 -2.91234e-07 -4.58866e-07 -4.58868e-07 -2.91234e-07 -2.91241e-07 -2.91316e-07 -2.91234e-07 8.94594e-06 8.94601e-06 -2.91234e-07 -2.91241e-07 8.94601e-06 8.94598e-06 8.94657e-06 8.94598e-06 -1.33582e-05 -1.33584e-05 8.94598e-06 8.94594e-06 -1.33584e-05 -1.33583e-05 -1.33582e-05 -1.33584e-05 -0.00017 -0.00017 -1.33584e-05 -1.33583e-05 -0.00017 -0.00017 8.94594e-06 8.94601e-06 -1.33583e-05 -1.33583e-05 8.94601e-06 8.94598e-06 -1.33583e-05 -1.33583e-05 -1.33583e-05 -1.33583e-05 -0.00017 -0.00017 -1.33583e-05 -1.33583e-05 -0.00017 -0.00017 -4.58868e-07 -4.58868e-07 -2.91241e-07 -2.91245e-07 -4.58868e-07 -4.58868e-07 -2.91245e-07 -2.91242e-07 -2.91241e-07 -2.91245e-07 8.94598e-06 8.94599e-06 -2.91245e-07 -2.91242e-07 8.94599e-06 8.94599e-06 -4.58868e-07 -4.58868e-07 -2.91242e-07 -2.91243e-07 -4.58868e-07 -4.58868e-07 -2.91243e-07 -2.91243e-07 -2.91242e-07 -2.91243e-07 8.94599e-06 8.94599e-06 -2.91243e-07 -2.91243e-07 8.94599e-06 8.94599e-06 8.94598e-06 8.94599e-06 -1.33583e-05 -1.33583e-05 8.94599e-06 8.94599e-06 -1.33583e-05 -1.33583e-05 -1.33583e-05 -1.33583e-05 -0.00017 -0.00017 -1.33583e-05 -1.33583e-05 -0.00017 -0.00017 8.94599e-06 8.94599e-06 -1.33583e-05 -1.33583e-05 8.94599e-06 8.94599e-06 -1.33583e-05 -1.33583e-05 -1.33583e-05 -1.33583e-05 -0.00017 -0.00017 -1.33583e-05 -1.33583e-05 -0.00017 -0.00017 2.54938e-13 6.48082e-13 -9.67305e-13 -1.0512e-12 6.48082e-13 5.51328e-13 -1.0512e-12 -1.0426e-12 -9.67305e-13 -1.0512e-12 3.17368e-12 3.19482e-12 -1.0512e-12 -1.0426e-12 3.19482e-12 3.196e-12 5.51328e-13 5.64251e-13 -1.0426e-12 -1.0405e-12 5.64251e-13 5.62734e-13 -1.0405e-12 -1.04183e-12 -1.0426e-12 -1.0405e-12 3.196e-12 3.19535e-12 -1.0405e-12 -1.04183e-12 3.19535e-12 3.19553e-12 3.17368e-12 3.19482e-12 -9.28087e-12 -9.2855e-12 3.19482e-12 3.196e-12 -9.2855e-12 -9.28545e-12 -9.28087e-12 -9.2855e-12 2.30268e-11 2.30278e-11 -9.2855e-12 -9.28545e-12 2.30278e-11 2.3028e-11 3.196e-12 3.19535e-12 -9.28545e-12 -9.28496e-12 3.19535e-12 3.19553e-12 -9.28496e-12 -9.28516e-12 -9.28545e-12 -9.28496e-12 2.3028e-11 2.30278e-11 -9.28496e-12 -9.28516e-12 2.30278e-11 2.3028e-11 5.62734e-13 5.62344e-13 -1.04183e-12 -1.04146e-12 5.62344e-13 5.62601e-13 -1.04146e-12 -1.04151e-12 -1.04183e-12 -1.04146e-12 3.19553e-12 3.19546e-12 -1.04146e-12 -1.04151e-12 3.19546e-12 3.19537e-12 5.62601e-13 5.62612e-13 -1.04151e-12 -1.04163e-12 5.62612e-13 5.62256e-13 -1.04163e-12 -1.04118e-12 -1.04151e-12 -1.04163e-12 3.19537e-12 3.19585e-12 -1.04163e-12 -1.04118e-12 3.19585e-12 3.19438e-12 3.19553e-12 3.19546e-12 -9.28516e-12 -9.28508e-12 3.19546e-12 3.19537e-12 -9.28508e-12 -9.28502e-12 -9.28516e-12 -9.28508e-12 2.3028e-11 2.30279e-11 -9.28508e-12 -9.28502e-12 2.30279e-11 2.30274e-11 3.19537e-12 3.19585e-12 -9.28502e-12 -9.28567e-12 3.19585e-12 3.19438e-12 -9.28567e-12 -9.28385e-12 -9.28502e-12 -9.28567e-12 2.30274e-11 2.30302e-11 -9.28567e-12 -9.28385e-12 2.30302e-11 2.30229e-11 2.30268e-11 2.30278e-11 -3.70802e-11 -3.70803e-11 2.30278e-11 2.3028e-11 -3.70803e-11 -3.70806e-11 -3.70802e-11 -3.70803e-11 -5.29164e-11 -5.29164e-11 -3.70803e-11 -3.70806e-11 -5.29164e-11 -5.2916e-11 2.3028e-11 2.30278e-11 -3.70806e-11 -3.70801e-11 2.30278e-11 2.3028e-11 -3.70801e-11 -3.70811e-11 -3.70806e-11 -3.70801e-11 -5.2916e-11 -5.2917e-11 -3.70801e-11 -3.70811e-11 -5.2917e-11 -5.29153e-11 -5.29164e-11 -5.29164e-11 7.98052e-10 7.98052e-10 -5.29164e-11 -5.2916e-11 7.98052e-10 7.98051e-10 7.98052e-10 7.98052e-10 -5.12272e-09 -5.12272e-09 7.98052e-10 7.98051e-10 -5.12272e-09 -5.12272e-09 -5.2916e-11 -5.2917e-11 7.98051e-10 7.98054e-10 -5.2917e-11 -5.29153e-11 7.98054e-10 7.98048e-10 7.98051e-10 7.98054e-10 -5.12272e-09 -5.12271e-09 7.98054e-10 7.98048e-10 -5.12271e-09 -5.12272e-09 2.3028e-11 2.30279e-11 -3.70811e-11 -3.708e-11 2.30279e-11 2.30274e-11 -3.708e-11 -3.70785e-11 -3.70811e-11 -3.708e-11 -5.29153e-11 -5.29162e-11 -3.708e-11 -3.70785e-11 -5.29162e-11 -5.29232e-11 2.30274e-11 2.30302e-11 -3.70785e-11 -3.70892e-11 2.30302e-11 2.30229e-11 -3.70892e-11 -3.70617e-11 -3.70785e-11 -3.70892e-11 -5.29232e-11 -5.28897e-11 -3.70892e-11 -3.70617e-11 -5.28897e-11 -5.29818e-11 -5.29153e-11 -5.29162e-11 7.98048e-10 7.98054e-10 -5.29162e-11 -5.29232e-11 7.98054e-10 7.98066e-10 7.98048e-10 7.98054e-10 -5.12272e-09 -5.1227e-09 7.98054e-10 7.98066e-10 -5.1227e-09 -5.12273e-09 -5.29232e-11 -5.28897e-11 7.98066e-10 7.97977e-10 -5.28897e-11 -5.29818e-11 7.97977e-10 7.98273e-10 7.98066e-10 7.97977e-10 -5.12273e-09 -5.1227e-09 7.97977e-10 7.98273e-10 -5.1227e-09 -5.12287e-09 5.62256e-13 5.62986e-13 -1.04118e-12 -1.04194e-12 5.62986e-13 5.63283e-13 -1.04194e-12 -1.04313e-12 -1.04118e-12 -1.04194e-12 3.19438e-12 3.19696e-12 -1.04194e-12 -1.04313e-12 3.19696e-12 3.19734e-12 5.63283e-13 5.56005e-13 -1.04313e-12 -1.03153e-12 5.56005e-13 5.76749e-13 -1.03153e-12 -1.06009e-12 -1.04313e-12 -1.03153e-12 3.19734e-12 3.18012e-12 -1.03153e-12 -1.06009e-12 3.18012e-12 3.21394e-12 3.19438e-12 3.19696e-12 -9.28385e-12 -9.28523e-12 3.19696e-12 3.19734e-12 -9.28523e-12 -9.29169e-12 -9.28385e-12 -9.28523e-12 2.30229e-11 2.30337e-11 -9.28523e-12 -9.29169e-12 2.30337e-11 2.3006e-11 3.19734e-12 3.18012e-12 -9.29169e-12 -9.29751e-12 3.18012e-12 3.21394e-12 -9.29751e-12 -9.13687e-12 -9.29169e-12 -9.29751e-12 2.3006e-11 2.32336e-11 -9.29751e-12 -9.13687e-12 2.32336e-11 2.21789e-11 5.76749e-13 5.61432e-13 -1.06009e-12 -1.05478e-12 5.61432e-13 5.02773e-13 -1.05478e-12 -1.0702e-12 -1.06009e-12 -1.05478e-12 3.21394e-12 3.18221e-12 -1.05478e-12 -1.0702e-12 3.18221e-12 3.44566e-12 5.02773e-13 4.60903e-13 -1.0702e-12 -6.83859e-13 4.60903e-13 6.26682e-13 -6.83859e-13 -3.43773e-13 -1.0702e-12 -6.83859e-13 3.44566e-12 2.04383e-12 -6.83859e-13 -3.43773e-13 2.04383e-12 2.39116e-12 3.21394e-12 3.18221e-12 -9.13687e-12 -9.71257e-12 3.18221e-12 3.44566e-12 -9.71257e-12 -1.16879e-11 -9.13687e-12 -9.71257e-12 2.21789e-11 2.37417e-11 -9.71257e-12 -1.16879e-11 2.37417e-11 3.07716e-11 3.44566e-12 2.04383e-12 -1.16879e-11 -2.54081e-12 2.04383e-12 2.39116e-12 -2.54081e-12 4.28758e-12 -1.16879e-11 -2.54081e-12 3.07716e-11 2.15371e-12 -2.54081e-12 4.28758e-12 2.15371e-12 5.10675e-12 2.30229e-11 2.30337e-11 -3.70617e-11 -3.7111e-11 2.30337e-11 2.3006e-11 -3.7111e-11 -3.69225e-11 -3.70617e-11 -3.7111e-11 -5.29818e-11 -5.2761e-11 -3.7111e-11 -3.69225e-11 -5.2761e-11 -5.35937e-11 2.3006e-11 2.32336e-11 -3.69225e-11 -3.82327e-11 2.32336e-11 2.21789e-11 -3.82327e-11 -3.27257e-11 -3.69225e-11 -3.82327e-11 -5.35937e-11 -4.94861e-11 -3.82327e-11 -3.27257e-11 -4.94861e-11 -6.48647e-11 -5.29818e-11 -5.2761e-11 7.98273e-10 7.9752e-10 -5.2761e-11 -5.35937e-11 7.9752e-10 7.99811e-10 7.98273e-10 7.9752e-10 -5.12287e-09 -5.12129e-09 7.9752e-10 7.99811e-10 -5.12129e-09 -5.12971e-09 -5.35937e-11 -4.94861e-11 7.99811e-10 7.89109e-10 -4.94861e-11 -6.48647e-11 7.89109e-10 8.33278e-10 7.99811e-10 7.89109e-10 -5.12971e-09 -5.10335e-09 7.89109e-10 8.33278e-10 -5.10335e-09 -5.14618e-09 2.21789e-11 2.37417e-11 -3.27257e-11 -4.47501e-11 2.37417e-11 3.07716e-11 -4.47501e-11 -7.15535e-11 -3.27257e-11 -4.47501e-11 -6.48647e-11 -4.22109e-11 -4.47501e-11 -7.15535e-11 -4.22109e-11 2.18873e-11 3.07716e-11 2.15371e-12 -7.15535e-11 5.67904e-11 2.15371e-12 5.10675e-12 5.67904e-11 1.49224e-10 -7.15535e-11 5.67904e-11 2.18873e-11 -2.80378e-10 5.67904e-11 1.49224e-10 -2.80378e-10 -1.82558e-10 -6.48647e-11 -4.22109e-11 8.33278e-10 7.16576e-10 -4.22109e-11 2.18873e-11 7.16576e-10 6.13293e-10 8.33278e-10 7.16576e-10 -5.14618e-09 -5.16952e-09 7.16576e-10 6.13293e-10 -5.16952e-09 -5.12502e-09 2.18873e-11 -2.80378e-10 6.13293e-10 1.63181e-09 -2.80378e-10 -1.82558e-10 1.63181e-09 2.47209e-09 6.13293e-10 1.63181e-09 -5.12502e-09 -5.18567e-09 1.63181e-09 2.47209e-09 -5.18567e-09 -2.996e-09 -5.12272e-09 -5.12272e-09 2.15172e-08 2.15172e-08 -5.12272e-09 -5.12272e-09 2.15172e-08 2.15172e-08 2.15172e-08 2.15172e-08 -8.37699e-08 -8.37699e-08 2.15172e-08 2.15172e-08 -8.37699e-08 -8.37699e-08 -5.12272e-09 -5.12271e-09 2.15172e-08 2.15172e-08 -5.12271e-09 -5.12272e-09 2.15172e-08 2.15172e-08 2.15172e-08 2.15172e-08 -8.37699e-08 -8.37699e-08 2.15172e-08 2.15172e-08 -8.37699e-08 -8.37699e-08 -8.37699e-08 -8.37699e-08 2.37949e-07 2.37949e-07 -8.37699e-08 -8.37699e-08 2.37949e-07 2.37949e-07 2.37949e-07 2.37949e-07 -4.58868e-07 -4.58868e-07 2.37949e-07 2.37949e-07 -4.58868e-07 -4.58868e-07 -8.37699e-08 -8.37699e-08 2.37949e-07 2.37949e-07 -8.37699e-08 -8.37699e-08 2.37949e-07 2.37948e-07 2.37949e-07 2.37949e-07 -4.58868e-07 -4.58868e-07 2.37949e-07 2.37948e-07 -4.58868e-07 -4.58867e-07 -5.12272e-09 -5.1227e-09 2.15172e-08 2.15173e-08 -5.1227e-09 -5.12273e-09 2.15173e-08 2.1517e-08 2.15172