# vtk DataFile Version 3.0
#This file was generated by the deal.II library on 2022/11/2 at 18:45:57
ASCII
DATASET UNSTRUCTURED_GRID

POINTS 4096 double
0 0.5 0
0.03125 0.5 0
0 0.53125 0
0.03125 0.53125 0
0.03125 0.5 0
0.0625 0.5 0
0.03125 0.53125 0
0.0625 0.53125 0
0 0.53125 0
0.03125 0.53125 0
0 0.5625 0
0.03125 0.5625 0
0.03125 0.53125 0
0.0625 0.53125 0
0.03125 0.5625 0
0.0625 0.5625 0
0.0625 0.5 0
0.09375 0.5 0
0.0625 0.53125 0
0.09375 0.53125 0
0.09375 0.5 0
0.125 0.5 0
0.09375 0.53125 0
0.125 0.53125 0
0.0625 0.53125 0
0.09375 0.53125 0
0.0625 0.5625 0
0.09375 0.5625 0
0.09375 0.53125 0
0.125 0.53125 0
0.09375 0.5625 0
0.125 0.5625 0
0 0.5625 0
0.03125 0.5625 0
0 0.59375 0
0.03125 0.59375 0
0.03125 0.5625 0
0.0625 0.5625 0
0.03125 0.59375 0
0.0625 0.59375 0
0 0.59375 0
0.03125 0.59375 0
0 0.625 0
0.03125 0.625 0
0.03125 0.59375 0
0.0625 0.59375 0
0.03125 0.625 0
0.0625 0.625 0
0.0625 0.5625 0
0.09375 0.5625 0
0.0625 0.59375 0
0.09375 0.59375 0
0.09375 0.5625 0
0.125 0.5625 0
0.09375 0.59375 0
0.125 0.59375 0
0.0625 0.59375 0
0.09375 0.59375 0
0.0625 0.625 0
0.09375 0.625 0
0.09375 0.59375 0
0.125 0.59375 0
0.09375 0.625 0
0.125 0.625 0
0.125 0.5 0
0.15625 0.5 0
0.125 0.53125 0
0.15625 0.53125 0
0.15625 0.5 0
0.1875 0.5 0
0.15625 0.53125 0
0.1875 0.53125 0
0.125 0.53125 0
0.15625 0.53125 0
0.125 0.5625 0
0.15625 0.5625 0
0.15625 0.53125 0
0.1875 0.53125 0
0.15625 0.5625 0
0.1875 0.5625 0
0.1875 0.5 0
0.21875 0.5 0
0.1875 0.53125 0
0.21875 0.53125 0
0.21875 0.5 0
0.25 0.5 0
0.21875 0.53125 0
0.25 0.53125 0
0.1875 0.53125 0
0.21875 0.53125 0
0.1875 0.5625 0
0.21875 0.5625 0
0.21875 0.53125 0
0.25 0.53125 0
0.21875 0.5625 0
0.25 0.5625 0
0.125 0.5625 0
0.15625 0.5625 0
0.125 0.59375 0
0.15625 0.59375 0
0.15625 0.5625 0
0.1875 0.5625 0
0.15625 0.59375 0
0.1875 0.59375 0
0.125 0.59375 0
0.15625 0.59375 0
0.125 0.625 0
0.15625 0.625 0
0.15625 0.59375 0
0.1875 0.59375 0
0.15625 0.625 0
0.1875 0.625 0
0.1875 0.5625 0
0.21875 0.5625 0
0.1875 0.59375 0
0.21875 0.59375 0
0.21875 0.5625 0
0.25 0.5625 0
0.21875 0.59375 0
0.25 0.59375 0
0.1875 0.59375 0
0.21875 0.59375 0
0.1875 0.625 0
0.21875 0.625 0
0.21875 0.59375 0
0.25 0.59375 0
0.21875 0.625 0
0.25 0.625 0
0 0.625 0
0.03125 0.625 0
0 0.65625 0
0.03125 0.65625 0
0.03125 0.625 0
0.0625 0.625 0
0.03125 0.65625 0
0.0625 0.65625 0
0 0.65625 0
0.03125 0.65625 0
0 0.6875 0
0.03125 0.6875 0
0.03125 0.65625 0
0.0625 0.65625 0
0.03125 0.6875 0
0.0625 0.6875 0
0.0625 0.625 0
0.09375 0.625 0
0.0625 0.65625 0
0.09375 0.65625 0
0.09375 0.625 0
0.125 0.625 0
0.09375 0.65625 0
0.125 0.65625 0
0.0625 0.65625 0
0.09375 0.65625 0
0.0625 0.6875 0
0.09375 0.6875 0
0.09375 0.65625 0
0.125 0.65625 0
0.09375 0.6875 0
0.125 0.6875 0
0 0.6875 0
0.03125 0.6875 0
0 0.71875 0
0.03125 0.71875 0
0.03125 0.6875 0
0.0625 0.6875 0
0.03125 0.71875 0
0.0625 0.71875 0
0 0.71875 0
0.03125 0.71875 0
0 0.75 0
0.03125 0.75 0
0.03125 0.71875 0
0.0625 0.71875 0
0.03125 0.75 0
0.0625 0.75 0
0.0625 0.6875 0
0.09375 0.6875 0
0.0625 0.71875 0
0.09375 0.71875 0
0.09375 0.6875 0
0.125 0.6875 0
0.09375 0.71875 0
0.125 0.71875 0
0.0625 0.71875 0
0.09375 0.71875 0
0.0625 0.75 0
0.09375 0.75 0
0.09375 0.71875 0
0.125 0.71875 0
0.09375 0.75 0
0.125 0.75 0
0.125 0.625 0
0.15625 0.625 0
0.125 0.65625 0
0.15625 0.65625 0
0.15625 0.625 0
0.1875 0.625 0
0.15625 0.65625 0
0.1875 0.65625 0
0.125 0.65625 0
0.15625 0.65625 0
0.125 0.6875 0
0.15625 0.6875 0
0.15625 0.65625 0
0.1875 0.65625 0
0.15625 0.6875 0
0.1875 0.6875 0
0.1875 0.625 0
0.21875 0.625 0
0.1875 0.65625 0
0.21875 0.65625 0
0.21875 0.625 0
0.25 0.625 0
0.21875 0.65625 0
0.25 0.65625 0
0.1875 0.65625 0
0.21875 0.65625 0
0.1875 0.6875 0
0.21875 0.6875 0
0.21875 0.65625 0
0.25 0.65625 0
0.21875 0.6875 0
0.25 0.6875 0
0.125 0.6875 0
0.15625 0.6875 0
0.125 0.71875 0
0.15625 0.71875 0
0.15625 0.6875 0
0.1875 0.6875 0
0.15625 0.71875 0
0.1875 0.71875 0
0.125 0.71875 0
0.15625 0.71875 0
0.125 0.75 0
0.15625 0.75 0
0.15625 0.71875 0
0.1875 0.71875 0
0.15625 0.75 0
0.1875 0.75 0
0.1875 0.6875 0
0.21875 0.6875 0
0.1875 0.71875 0
0.21875 0.71875 0
0.21875 0.6875 0
0.25 0.6875 0
0.21875 0.71875 0
0.25 0.71875 0
0.1875 0.71875 0
0.21875 0.71875 0
0.1875 0.75 0
0.21875 0.75 0
0.21875 0.71875 0
0.25 0.71875 0
0.21875 0.75 0
0.25 0.75 0
0.25 0.5 0
0.28125 0.5 0
0.25 0.53125 0
0.28125 0.53125 0
0.28125 0.5 0
0.3125 0.5 0
0.28125 0.53125 0
0.3125 0.53125 0
0.25 0.53125 0
0.28125 0.53125 0
0.25 0.5625 0
0.28125 0.5625 0
0.28125 0.53125 0
0.3125 0.53125 0
0.28125 0.5625 0
0.3125 0.5625 0
0.3125 0.5 0
0.34375 0.5 0
0.3125 0.53125 0
0.34375 0.53125 0
0.34375 0.5 0
0.375 0.5 0
0.34375 0.53125 0
0.375 0.53125 0
0.3125 0.53125 0
0.34375 0.53125 0
0.3125 0.5625 0
0.34375 0.5625 0
0.34375 0.53125 0
0.375 0.53125 0
0.34375 0.5625 0
0.375 0.5625 0
0.25 0.5625 0
0.28125 0.5625 0
0.25 0.59375 0
0.28125 0.59375 0
0.28125 0.5625 0
0.3125 0.5625 0
0.28125 0.59375 0
0.3125 0.59375 0
0.25 0.59375 0
0.28125 0.59375 0
0.25 0.625 0
0.28125 0.625 0
0.28125 0.59375 0
0.3125 0.59375 0
0.28125 0.625 0
0.3125 0.625 0
0.3125 0.5625 0
0.34375 0.5625 0
0.3125 0.59375 0
0.34375 0.59375 0
0.34375 0.5625 0
0.375 0.5625 0
0.34375 0.59375 0
0.375 0.59375 0
0.3125 0.59375 0
0.34375 0.59375 0
0.3125 0.625 0
0.34375 0.625 0
0.34375 0.59375 0
0.375 0.59375 0
0.34375 0.625 0
0.375 0.625 0
0.375 0.5 0
0.40625 0.5 0
0.375 0.53125 0
0.40625 0.53125 0
0.40625 0.5 0
0.4375 0.5 0
0.40625 0.53125 0
0.4375 0.53125 0
0.375 0.53125 0
0.40625 0.53125 0
0.375 0.5625 0
0.40625 0.5625 0
0.40625 0.53125 0
0.4375 0.53125 0
0.40625 0.5625 0
0.4375 0.5625 0
0.4375 0.5 0
0.46875 0.5 0
0.4375 0.53125 0
0.46875 0.53125 0
0.46875 0.5 0
0.5 0.5 0
0.46875 0.53125 0
0.5 0.53125 0
0.4375 0.53125 0
0.46875 0.53125 0
0.4375 0.5625 0
0.46875 0.5625 0
0.46875 0.53125 0
0.5 0.53125 0
0.46875 0.5625 0
0.5 0.5625 0
0.375 0.5625 0
0.40625 0.5625 0
0.375 0.59375 0
0.40625 0.59375 0
0.40625 0.5625 0
0.4375 0.5625 0
0.40625 0.59375 0
0.4375 0.59375 0
0.375 0.59375 0
0.40625 0.59375 0
0.375 0.625 0
0.40625 0.625 0
0.40625 0.59375 0
0.4375 0.59375 0
0.40625 0.625 0
0.4375 0.625 0
0.4375 0.5625 0
0.46875 0.5625 0
0.4375 0.59375 0
0.46875 0.59375 0
0.46875 0.5625 0
0.5 0.5625 0
0.46875 0.59375 0
0.5 0.59375 0
0.4375 0.59375 0
0.46875 0.59375 0
0.4375 0.625 0
0.46875 0.625 0
0.46875 0.59375 0
0.5 0.59375 0
0.46875 0.625 0
0.5 0.625 0
0.25 0.625 0
0.28125 0.625 0
0.25 0.65625 0
0.28125 0.65625 0
0.28125 0.625 0
0.3125 0.625 0
0.28125 0.65625 0
0.3125 0.65625 0
0.25 0.65625 0
0.28125 0.65625 0
0.25 0.6875 0
0.28125 0.6875 0
0.28125 0.65625 0
0.3125 0.65625 0
0.28125 0.6875 0
0.3125 0.6875 0
0.3125 0.625 0
0.34375 0.625 0
0.3125 0.65625 0
0.34375 0.65625 0
0.34375 0.625 0
0.375 0.625 0
0.34375 0.65625 0
0.375 0.65625 0
0.3125 0.65625 0
0.34375 0.65625 0
0.3125 0.6875 0
0.34375 0.6875 0
0.34375 0.65625 0
0.375 0.65625 0
0.34375 0.6875 0
0.375 0.6875 0
0.25 0.6875 0
0.28125 0.6875 0
0.25 0.71875 0
0.28125 0.71875 0
0.28125 0.6875 0
0.3125 0.6875 0
0.28125 0.71875 0
0.3125 0.71875 0
0.25 0.71875 0
0.28125 0.71875 0
0.25 0.75 0
0.28125 0.75 0
0.28125 0.71875 0
0.3125 0.71875 0
0.28125 0.75 0
0.3125 0.75 0
0.3125 0.6875 0
0.34375 0.6875 0
0.3125 0.71875 0
0.34375 0.71875 0
0.34375 0.6875 0
0.375 0.6875 0
0.34375 0.71875 0
0.375 0.71875 0
0.3125 0.71875 0
0.34375 0.71875 0
0.3125 0.75 0
0.34375 0.75 0
0.34375 0.71875 0
0.375 0.71875 0
0.34375 0.75 0
0.375 0.75 0
0.375 0.625 0
0.40625 0.625 0
0.375 0.65625 0
0.40625 0.65625 0
0.40625 0.625 0
0.4375 0.625 0
0.40625 0.65625 0
0.4375 0.65625 0
0.375 0.65625 0
0.40625 0.65625 0
0.375 0.6875 0
0.40625 0.6875 0
0.40625 0.65625 0
0.4375 0.65625 0
0.40625 0.6875 0
0.4375 0.6875 0
0.4375 0.625 0
0.46875 0.625 0
0.4375 0.65625 0
0.46875 0.65625 0
0.46875 0.625 0
0.5 0.625 0
0.46875 0.65625 0
0.5 0.65625 0
0.4375 0.65625 0
0.46875 0.65625 0
0.4375 0.6875 0
0.46875 0.6875 0
0.46875 0.65625 0
0.5 0.65625 0
0.46875 0.6875 0
0.5 0.6875 0
0.375 0.6875 0
0.40625 0.6875 0
0.375 0.71875 0
0.40625 0.71875 0
0.40625 0.6875 0
0.4375 0.6875 0
0.40625 0.71875 0
0.4375 0.71875 0
0.375 0.71875 0
0.40625 0.71875 0
0.375 0.75 0
0.40625 0.75 0
0.40625 0.71875 0
0.4375 0.71875 0
0.40625 0.75 0
0.4375 0.75 0
0.4375 0.6875 0
0.46875 0.6875 0
0.4375 0.71875 0
0.46875 0.71875 0
0.46875 0.6875 0
0.5 0.6875 0
0.46875 0.71875 0
0.5 0.71875 0
0.4375 0.71875 0
0.46875 0.71875 0
0.4375 0.75 0
0.46875 0.75 0
0.46875 0.71875 0
0.5 0.71875 0
0.46875 0.75 0
0.5 0.75 0
0 0.75 0
0.03125 0.75 0
0 0.78125 0
0.03125 0.78125 0
0.03125 0.75 0
0.0625 0.75 0
0.03125 0.78125 0
0.0625 0.78125 0
0 0.78125 0
0.03125 0.78125 0
0 0.8125 0
0.03125 0.8125 0
0.03125 0.78125 0
0.0625 0.78125 0
0.03125 0.8125 0
0.0625 0.8125 0
0.0625 0.75 0
0.09375 0.75 0
0.0625 0.78125 0
0.09375 0.78125 0
0.09375 0.75 0
0.125 0.75 0
0.09375 0.78125 0
0.125 0.78125 0
0.0625 0.78125 0
0.09375 0.78125 0
0.0625 0.8125 0
0.09375 0.8125 0
0.09375 0.78125 0
0.125 0.78125 0
0.09375 0.8125 0
0.125 0.8125 0
0 0.8125 0
0.03125 0.8125 0
0 0.84375 0
0.03125 0.84375 0
0.03125 0.8125 0
0.0625 0.8125 0
0.03125 0.84375 0
0.0625 0.84375 0
0 0.84375 0
0.03125 0.84375 0
0 0.875 0
0.03125 0.875 0
0.03125 0.84375 0
0.0625 0.84375 0
0.03125 0.875 0
0.0625 0.875 0
0.0625 0.8125 0
0.09375 0.8125 0
0.0625 0.84375 0
0.09375 0.84375 0
0.09375 0.8125 0
0.125 0.8125 0
0.09375 0.84375 0
0.125 0.84375 0
0.0625 0.84375 0
0.09375 0.84375 0
0.0625 0.875 0
0.09375 0.875 0
0.09375 0.84375 0
0.125 0.84375 0
0.09375 0.875 0
0.125 0.875 0
0.125 0.75 0
0.15625 0.75 0
0.125 0.78125 0
0.15625 0.78125 0
0.15625 0.75 0
0.1875 0.75 0
0.15625 0.78125 0
0.1875 0.78125 0
0.125 0.78125 0
0.15625 0.78125 0
0.125 0.8125 0
0.15625 0.8125 0
0.15625 0.78125 0
0.1875 0.78125 0
0.15625 0.8125 0
0.1875 0.8125 0
0.1875 0.75 0
0.21875 0.75 0
0.1875 0.78125 0
0.21875 0.78125 0
0.21875 0.75 0
0.25 0.75 0
0.21875 0.78125 0
0.25 0.78125 0
0.1875 0.78125 0
0.21875 0.78125 0
0.1875 0.8125 0
0.21875 0.8125 0
0.21875 0.78125 0
0.25 0.78125 0
0.21875 0.8125 0
0.25 0.8125 0
0.125 0.8125 0
0.15625 0.8125 0
0.125 0.84375 0
0.15625 0.84375 0
0.15625 0.8125 0
[...]
POINT_DATA 4096
SCALARS x_dis double 1
LOOKUP_TABLE default
-1.55337e-12 -1.31124e-12 2.65032e-13 2.30123e-12 -1.31124e-12 -1.21872e-12 2.30123e-12 4.35243e-12 2.65032e-13 2.30123e-12 -1.0074e-11 -7.03911e-12 2.30123e-12 4.35243e-12 -7.03911e-12 -1.36997e-11 -1.21872e-12 -1.13892e-12 4.35243e-12 4.49171e-12 -1.13892e-12 -1.37329e-12 4.49171e-12 5.26524e-12 4.35243e-12 4.49171e-12 -1.36997e-11 -1.45638e-11 4.49171e-12 5.26524e-12 -1.45638e-11 -1.64587e-11 -1.0074e-11 -7.03911e-12 -3.6791e-11 -9.43573e-12 -7.03911e-12 -1.36997e-11 -9.43573e-12 3.51956e-11 -3.6791e-11 -9.43573e-12 -1.01004e-11 4.44878e-11 -9.43573e-12 3.51956e-11 4.44878e-11 -6.84111e-11 -1.36997e-11 -1.45638e-11 3.51956e-11 4.47884e-11 -1.45638e-11 -1.64587e-11 4.47884e-11 5.04261e-11 3.51956e-11 4.47884e-11 -6.84111e-11 -9.89688e-11 4.47884e-11 5.04261e-11 -9.89688e-11 -1.00249e-10 -1.37329e-12 -1.31492e-12 5.26524e-12 4.97214e-12 -1.31492e-12 -1.28282e-12 4.97214e-12 4.83892e-12 5.26524e-12 4.97214e-12 -1.64587e-11 -1.5251e-11 4.97214e-12 4.83892e-12 -1.5251e-11 -1.50867e-11 -1.28282e-12 -1.30514e-12 4.83892e-12 4.91948e-12 -1.30514e-12 -1.30181e-12 4.91948e-12 4.90641e-12 4.83892e-12 4.91948e-12 -1.50867e-11 -1.53481e-11 4.91948e-12 4.90641e-12 -1.53481e-11 -1.52679e-11 -1.64587e-11 -1.5251e-11 5.04261e-11 4.64615e-11 -1.5251e-11 -1.50867e-11 4.64615e-11 4.61114e-11 5.04261e-11 4.64615e-11 -1.00249e-10 -9.01117e-11 4.64615e-11 4.61114e-11 -9.01117e-11 -9.12694e-11 -1.50867e-11 -1.53481e-11 4.61114e-11 4.66124e-11 -1.53481e-11 -1.52679e-11 4.66124e-11 4.64679e-11 4.61114e-11 4.66124e-11 -9.12694e-11 -9.22505e-11 4.66124e-11 4.64679e-11 -9.22505e-11 -9.17593e-11 -1.01004e-11 4.44878e-11 -8.2364e-10 -4.88353e-10 4.44878e-11 -6.84111e-11 -4.88353e-10 6.07948e-12 -8.2364e-10 -4.88353e-10 6.64149e-10 1.17824e-09 -4.88353e-10 6.07948e-12 1.17824e-09 4.94685e-10 -6.84111e-11 -9.89688e-11 6.07948e-12 1.53815e-10 -9.89688e-11 -1.00249e-10 1.53815e-10 1.38489e-10 6.07948e-12 1.53815e-10 4.94685e-10 3.78186e-10 1.53815e-10 1.38489e-10 3.78186e-10 6.79361e-10 6.64149e-10 1.17824e-09 -1.16235e-08 -6.82746e-09 1.17824e-09 4.94685e-10 -6.82746e-09 -4.38672e-09 -1.16235e-08 -6.82746e-09 7.11061e-09 8.49258e-09 -6.82746e-09 -4.38672e-09 8.49258e-09 1.49395e-08 4.94685e-10 3.78186e-10 -4.38672e-09 -3.6265e-09 3.78186e-10 6.79361e-10 -3.6265e-09 -4.67085e-09 -4.38672e-09 -3.6265e-09 1.49395e-08 1.8535e-08 -3.6265e-09 -4.67085e-09 1.8535e-08 2.21287e-08 -1.00249e-10 -9.01117e-11 1.38489e-10 1.18196e-10 -9.01117e-11 -9.12694e-11 1.18196e-10 1.21972e-10 1.38489e-10 1.18196e-10 6.79361e-10 6.94551e-10 1.18196e-10 1.21972e-10 6.94551e-10 6.59724e-10 -9.12694e-11 -9.22505e-11 1.21972e-10 1.20763e-10 -9.22505e-11 -9.17593e-11 1.20763e-10 1.21008e-10 1.21972e-10 1.20763e-10 6.59724e-10 6.70043e-10 1.20763e-10 1.21008e-10 6.70043e-10 6.68733e-10 6.79361e-10 6.94551e-10 -4.67085e-09 -4.59089e-09 6.94551e-10 6.59724e-10 -4.59089e-09 -4.55806e-09 -4.67085e-09 -4.59089e-09 2.21287e-08 2.15416e-08 -4.59089e-09 -4.55806e-09 2.15416e-08 2.12883e-08 6.59724e-10 6.70043e-10 -4.55806e-09 -4.58437e-09 6.70043e-10 6.68733e-10 -4.58437e-09 -4.5755e-09 -4.55806e-09 -4.58437e-09 2.12883e-08 2.13654e-08 -4.58437e-09 -4.5755e-09 2.13654e-08 2.13432e-08 -1.30181e-12 -1.29999e-12 4.90641e-12 4.90242e-12 -1.29999e-12 -1.30134e-12 4.90242e-12 4.90532e-12 4.90641e-12 4.90242e-12 -1.52679e-11 -1.52721e-11 4.90242e-12 4.90532e-12 -1.52721e-11 -1.52778e-11 -1.30134e-12 -1.30077e-12 4.90532e-12 4.90405e-12 -1.30077e-12 -1.30113e-12 4.90405e-12 4.9057e-12 4.90532e-12 4.90405e-12 -1.52778e-11 -1.52747e-11 4.90405e-12 4.9057e-12 -1.52747e-11 -1.52762e-11 -1.52679e-11 -1.52721e-11 4.64679e-11 4.64894e-11 -1.52721e-11 -1.52778e-11 4.64894e-11 4.64853e-11 4.64679e-11 4.64894e-11 -9.17593e-11 -9.18704e-11 4.64894e-11 4.64853e-11 -9.18704e-11 -9.1855e-11 -1.52778e-11 -1.52747e-11 4.64853e-11 4.64877e-11 -1.52747e-11 -1.52762e-11 4.64877e-11 4.64872e-11 4.64853e-11 4.64877e-11 -9.1855e-11 -9.18606e-11 4.64877e-11 4.64872e-11 -9.18606e-11 -9.18572e-11 -1.30113e-12 -1.30056e-12 4.9057e-12 4.90053e-12 -1.30056e-12 -1.30325e-12 4.90053e-12 4.91727e-12 4.9057e-12 4.90053e-12 -1.52762e-11 -1.52744e-11 4.90053e-12 4.91727e-12 -1.52744e-11 -1.52812e-11 -1.30325e-12 -1.31794e-12 4.91727e-12 4.83782e-12 -1.31794e-12 -1.3517e-12 4.83782e-12 4.95247e-12 4.91727e-12 4.83782e-12 -1.52812e-11 -1.52653e-11 4.83782e-12 4.95247e-12 -1.52653e-11 -1.53058e-11 -1.52762e-11 -1.52744e-11 4.64872e-11 4.64861e-11 -1.52744e-11 -1.52812e-11 4.64861e-11 4.64888e-11 4.64872e-11 4.64861e-11 -9.18572e-11 -9.18579e-11 4.64861e-11 4.64888e-11 -9.18579e-11 -9.18589e-11 -1.52812e-11 -1.52653e-11 4.64888e-11 4.64811e-11 -1.52653e-11 -1.53058e-11 4.64811e-11 4.64894e-11 4.64888e-11 4.64811e-11 -9.18589e-11 -9.18567e-11 4.64811e-11 4.64894e-11 -9.18567e-11 -9.18586e-11 -9.17593e-11 -9.18704e-11 1.21008e-10 1.20955e-10 -9.18704e-11 -9.1855e-11 1.20955e-10 1.20928e-10 1.21008e-10 1.20955e-10 6.68733e-10 6.69304e-10 1.20955e-10 1.20928e-10 6.69304e-10 6.69027e-10 -9.1855e-11 -9.18606e-11 1.20928e-10 1.20967e-10 -9.18606e-11 -9.18572e-11 1.20967e-10 1.2094e-10 1.20928e-10 1.20967e-10 6.69027e-10 6.69033e-10 1.20967e-10 1.2094e-10 6.69033e-10 6.69107e-10 6.68733e-10 6.69304e-10 -4.5755e-09 -4.58019e-09 6.69304e-10 6.69027e-10 -4.58019e-09 -4.57813e-09 -4.5755e-09 -4.58019e-09 2.13432e-08 2.13533e-08 -4.58019e-09 -4.57813e-09 2.13533e-08 2.13483e-08 6.69027e-10 6.69033e-10 -4.57813e-09 -4.57867e-09 6.69033e-10 6.69107e-10 -4.57867e-09 -4.57868e-09 -4.57813e-09 -4.57867e-09 2.13483e-08 2.13498e-08 -4.57867e-09 -4.57868e-09 2.13498e-08 2.13498e-08 -9.18572e-11 -9.18579e-11 1.2094e-10 1.20953e-10 -9.18579e-11 -9.18589e-11 1.20953e-10 1.20949e-10 1.2094e-10 1.20953e-10 6.69107e-10 6.69053e-10 1.20953e-10 1.20949e-10 6.69053e-10 6.69076e-10 -9.18589e-11 -9.18567e-11 1.20949e-10 1.20949e-10 -9.18567e-11 -9.18586e-11 1.20949e-10 1.2095e-10 1.20949e-10 1.20949e-10 6.69076e-10 6.6907e-10 1.20949e-10 1.2095e-10 6.6907e-10 6.69071e-10 6.69107e-10 6.69053e-10 -4.57868e-09 -4.57859e-09 6.69053e-10 6.69076e-10 -4.57859e-09 -4.57865e-09 -4.57868e-09 -4.57859e-09 2.13498e-08 2.13496e-08 -4.57859e-09 -4.57865e-09 2.13496e-08 2.13497e-08 6.69076e-10 6.6907e-10 -4.57865e-09 -4.57862e-09 6.6907e-10 6.69071e-10 -4.57862e-09 -4.57863e-09 -4.57865e-09 -4.57862e-09 2.13497e-08 2.13496e-08 -4.57862e-09 -4.57863e-09 2.13496e-08 2.13496e-08 7.11061e-09 8.49258e-09 -1.2161e-07 -6.39114e-08 8.49258e-09 1.49395e-08 -6.39114e-08 -7.86382e-08 -1.2161e-07 -6.39114e-08 -1.59623e-07 -2.5836e-08 -6.39114e-08 -7.86382e-08 -2.5836e-08 1.58033e-07 1.49395e-08 1.8535e-08 -7.86382e-08 -8.18742e-08 1.8535e-08 2.21287e-08 -8.18742e-08 -8.60823e-08 -7.86382e-08 -8.18742e-08 1.58033e-07 1.93313e-07 -8.18742e-08 -8.60823e-08 1.93313e-07 1.92601e-07 -1.59623e-07 -2.5836e-08 -3.64387e-07 -5.28568e-08 -2.5836e-08 1.58033e-07 -5.28568e-08 -3.54144e-07 -3.64387e-07 -5.28568e-08 -6.31928e-06 -4.18023e-06 -5.28568e-08 -3.54144e-07 -4.18023e-06 -2.09294e-06 1.58033e-07 1.93313e-07 -3.54144e-07 -3.86307e-07 1.93313e-07 1.92601e-07 -3.86307e-07 -3.16162e-07 -3.54144e-07 -3.86307e-07 -2.09294e-06 -9.05719e-07 -3.86307e-07 -3.16162e-07 -9.05719e-07 -7.48105e-07 2.21287e-08 2.15416e-08 -8.60823e-08 -8.57962e-08 2.15416e-08 2.12883e-08 -8.57962e-08 -8.56373e-08 -8.60823e-08 -8.57962e-08 1.92601e-07 1.85654e-07 -8.57962e-08 -8.56373e-08 1.85654e-07 1.85209e-07 2.12883e-08 2.13654e-08 -8.56373e-08 -8.56792e-08 2.13654e-08 2.13432e-08 -8.56792e-08 -8.56729e-08 -8.56373e-08 -8.56792e-08 1.85209e-07 1.85559e-07 -8.56792e-08 -8.56729e-08 1.85559e-07 1.85529e-07 1.92601e-07 1.85654e-07 -3.16162e-07 -3.28158e-07 1.85654e-07 1.85209e-07 -3.28158e-07 -3.3172e-07 -3.16162e-07 -3.28158e-07 -7.48105e-07 -7.57078e-07 -3.28158e-07 -3.3172e-07 -7.57078e-07 -8.0465e-07 1.85209e-07 1.85559e-07 -3.3172e-07 -3.30079e-07 1.85559e-07 1.85529e-07 -3.30079e-07 -3.30749e-07 -3.3172e-07 -3.30079e-07 -8.0465e-07 -8.01378e-07 -3.30079e-07 -3.30749e-07 -8.01378e-07 -7.95474e-07 -6.31928e-06 -4.18023e-06 -5.89072e-06 -6.98414e-07 -4.18023e-06 -2.09294e-06 -6.98414e-07 5.02849e-06 -5.89072e-06 -6.98414e-07 -3.70817e-05 1.07397e-06 -6.98414e-07 5.02849e-06 1.07397e-06 -2.20019e-07 -2.09294e-06 -9.05719e-07 5.02849e-06 7.00095e-06 -9.05719e-07 -7.48105e-07 7.00095e-06 7.21185e-06 5.02849e-06 7.00095e-06 -2.20019e-07 1.02421e-06 7.00095e-06 7.21185e-06 1.02421e-06 1.29931e-06 -3.70817e-05 1.07397e-06 -0.000128955 -6.46682e-05 1.07397e-06 -2.20019e-07 -6.46682e-05 -4.73744e-05 -0.000128955 -6.46682e-05 -0.00025 -0.00025 -6.46682e-05 -4.73744e-05 -0.00025 -0.00025 -2.20019e-07 1.02421e-06 -4.73744e-05 -4.61991e-05 1.02421e-06 1.29931e-06 -4.61991e-05 -4.64124e-05 -4.73744e-05 -4.61991e-05 -0.00025 -0.00025 -4.61991e-05 -4.64124e-05 -0.00025 -0.00025 -7.48105e-07 -7.57078e-07 7.21185e-06 7.10469e-06 -7.57078e-07 -8.0465e-07 7.10469e-06 7.03087e-06 7.21185e-06 7.10469e-06 1.29931e-06 1.03497e-06 7.10469e-06 7.03087e-06 1.03497e-06 1.02242e-06 -8.0465e-07 -8.01378e-07 7.03087e-06 7.05346e-06 -8.01378e-07 -7.95474e-07 7.05346e-06 7.05575e-06 7.03087e-06 7.05346e-06 1.02242e-06 1.05619e-06 7.05346e-06 7.05575e-06 1.05619e-06 1.04346e-06 1.29931e-06 1.03497e-06 -4.64124e-05 -4.65443e-05 1.03497e-06 1.02242e-06 -4.65443e-05 -4.65873e-05 -4.64124e-05 -4.65443e-05 -0.00025 -0.00025 -4.65443e-05 -4.65873e-05 -0.00025 -0.00025 1.02242e-06 1.05619e-06 -4.65873e-05 -4.65683e-05 1.05619e-06 1.04346e-06 -4.65683e-05 -4.65678e-05 -4.65873e-05 -4.65683e-05 -0.00025 -0.00025 -4.65683e-05 -4.65678e-05 -0.00025 -0.00025 2.13432e-08 2.13533e-08 -8.56729e-08 -8.56863e-08 2.13533e-08 2.13483e-08 -8.56863e-08 -8.56761e-08 -8.56729e-08 -8.56863e-08 1.85529e-07 1.85504e-07 -8.56863e-08 -8.56761e-08 1.85504e-07 1.85509e-07 2.13483e-08 2.13498e-08 -8.56761e-08 -8.56807e-08 2.13498e-08 2.13498e-08 -8.56807e-08 -8.56793e-08 -8.56761e-08 -8.56807e-08 1.85509e-07 1.85514e-07 -8.56807e-08 -8.56793e-08 1.85514e-07 1.85509e-07 1.85529e-07 1.85504e-07 -3.30749e-07 -3.3048e-07 1.85504e-07 1.85509e-07 -3.3048e-07 -3.30553e-07 -3.30749e-07 -3.3048e-07 -7.95474e-07 -7.98328e-07 -3.3048e-07 -3.30553e-07 -7.98328e-07 -7.97791e-07 1.85509e-07 1.85514e-07 -3.30553e-07 -3.30554e-07 1.85514e-07 1.85509e-07 -3.30554e-07 -3.30541e-07 -3.30553e-07 -3.30554e-07 -7.97791e-07 -7.97717e-07 -3.30554e-07 -3.30541e-07 -7.97717e-07 -7.97809e-07 2.13498e-08 2.13496e-08 -8.56793e-08 -8.56796e-08 2.13496e-08 2.13497e-08 -8.56796e-08 -8.56795e-08 -8.56793e-08 -8.56796e-08 1.85509e-07 1.85511e-07 -8.56796e-08 -8.56795e-08 1.85511e-07 1.85511e-07 2.13497e-08 2.13496e-08 -8.56795e-08 -8.56795e-08 2.13496e-08 2.13496e-08 -8.56795e-08 -8.56795e-08 -8.56795e-08 -8.56795e-08 1.85511e-07 1.85511e-07 -8.56795e-08 -8.56795e-08 1.85511e-07 1.85511e-07 1.85509e-07 1.85511e-07 -3.30541e-07 -3.30549e-07 1.85511e-07 1.85511e-07 -3.30549e-07 -3.30546e-07 -3.30541e-07 -3.30549e-07 -7.97809e-07 -7.97772e-07 -3.30549e-07 -3.30546e-07 -7.97772e-07 -7.97781e-07 1.85511e-07 1.85511e-07 -3.30546e-07 -3.30547e-07 1.85511e-07 1.85511e-07 -3.30547e-07 -3.30547e-07 -3.30546e-07 -3.30547e-07 -7.97781e-07 -7.9778e-07 -3.30547e-07 -3.30547e-07 -7.9778e-07 -7.97779e-07 -7.95474e-07 -7.98328e-07 7.05575e-06 7.05167e-06 -7.98328e-07 -7.97791e-07 7.05167e-06 7.05329e-06 7.05575e-06 7.05167e-06 1.04346e-06 1.04522e-06 7.05167e-06 7.05329e-06 1.04522e-06 1.04578e-06 -7.97791e-07 -7.97717e-07 7.05329e-06 7.05298e-06 -7.97717e-07 -7.97809e-07 7.05298e-06 7.05295e-06 7.05329e-06 7.05298e-06 1.04578e-06 1.04533e-06 7.05298e-06 7.05295e-06 1.04533e-06 1.0455e-06 1.04346e-06 1.04522e-06 -4.65678e-05 -4.65703e-05 1.04522e-06 1.04578e-06 -4.65703e-05 -4.65693e-05 -4.65678e-05 -4.65703e-05 -0.00025 -0.00025 -4.65703e-05 -4.65693e-05 -0.00025 -0.00025 1.04578e-06 1.04533e-06 -4.65693e-05 -4.65695e-05 1.04533e-06 1.0455e-06 -4.65695e-05 -4.65695e-05 -4.65693e-05 -4.65695e-05 -0.00025 -0.00025 -4.65695e-05 -4.65695e-05 -0.00025 -0.00025 -7.97809e-07 -7.97772e-07 7.05295e-06 7.053e-06 -7.97772e-07 -7.97781e-07 7.053e-06 7.05298e-06 7.05295e-06 7.053e-06 1.0455e-06 1.04546e-06 7.053e-06 7.05298e-06 1.04546e-06 1.04546e-06 -7.97781e-07 -7.9778e-07 7.05298e-06 7.05299e-06 -7.9778e-07 -7.97779e-07 7.05299e-06 7.05298e-06 7.05298e-06 7.05299e-06 1.04546e-06 1.04546e-06 7.05299e-06 7.05298e-06 1.04546e-06 1.04546e-06 1.0455e-06 1.04546e-06 -4.65695e-05 -4.65695e-05 1.04546e-06 1.04546e-06 -4.65695e-05 -4.65695e-05 -4.65695e-05 -4.65695e-05 -0.00025 -0.00025 -4.65695e-05 -4.65695e-05 -0.00025 -0.00025 1.04546e-06 1.04546e-06 -4.65695e-05 -4.65695e-05 1.04546e-06 1.04546e-06 -4.65695e-05 -4.65695e-05 -4.65695e-05 -4.65695e-05 -0.00025 -0.00025 -4.65695e-05 -4.65695e-05 -0.00025 -0.00025 -1.3517e-12 -2.92098e-12 4.95247e-12 5.33452e-12 -2.92098e-12 -2.61289e-12 5.33452e-12 5.26493e-12 4.95247e-12 5.33452e-12 -1.53058e-11 -1.53856e-11 5.33452e-12 5.26493e-12 -1.53856e-11 -1.53622e-11 -2.61289e-12 -2.64711e-12 5.26493e-12 5.25908e-12 -2.64711e-12 -2.6594e-12 5.25908e-12 5.26316e-12 5.26493e-12 5.25908e-12 -1.53622e-11 -1.53648e-11 5.25908e-12 5.26316e-12 -1.53648e-11 -1.53628e-11 -1.53058e-11 -1.53856e-11 4.64894e-11 4.65052e-11 -1.53856e-11 -1.53622e-11 4.65052e-11 4.65039e-11 4.64894e-11 4.65052e-11 -9.18586e-11 -9.1862e-11 4.65052e-11 4.65039e-11 -9.1862e-11 -9.1862e-11 -1.53622e-11 -1.53648e-11 4.65039e-11 4.65063e-11 -1.53648e-11 -1.53628e-11 4.65063e-11 4.65051e-11 4.65039e-11 4.65063e-11 -9.1862e-11 -9.18623e-11 4.65063e-11 4.65051e-11 -9.18623e-11 -9.18629e-11 -2.6594e-12 -2.65404e-12 5.26316e-12 5.26195e-12 -2.65404e-12 -2.65592e-12 5.26195e-12 5.2619e-12 5.26316e-12 5.26195e-12 -1.53628e-11 -1.53639e-11 5.26195e-12 5.2619e-12 -1.53639e-11 -1.53629e-11 -2.65592e-12 -2.65585e-12 5.2619e-12 5.26431e-12 -2.65585e-12 -2.65011e-12 5.26431e-12 5.25222e-12 5.2619e-12 5.26431e-12 -1.53629e-11 -1.53699e-11 5.26431e-12 5.25222e-12 -1.53699e-11 -1.53385e-11 -1.53628e-11 -1.53639e-11 4.65051e-11 4.65054e-11 -1.53639e-11 -1.53629e-11 4.65054e-11 4.65023e-11 4.65051e-11 4.65054e-11 -9.18629e-11 -9.18601e-11 4.65054e-11 4.65023e-11 -9.18601e-11 -9.18577e-11 -1.53629e-11 -1.53699e-11 4.65023e-11 4.65224e-11 -1.53699e-11 -1.53385e-11 4.65224e-11 4.6468e-11 4.65023e-11 4.65224e-11 -9.18577e-11 -9.18956e-11 4.65224e-11 4.6468e-11 -9.18956e-11 -9.17962e-11 -9.18586e-11 -9.1862e-11 1.2095e-10 1.2095e-10 -9.1862e-11 -9.1862e-11 1.2095e-10 1.2095e-10 1.2095e-10 1.2095e-10 6.69071e-10 6.69072e-10 1.2095e-10 1.2095e-10 6.69072e-10 6.69067e-10 -9.1862e-11 -9.18623e-11 1.2095e-10 1.20947e-10 -9.18623e-11 -9.18629e-11 1.20947e-10 1.20958e-10 1.2095e-10 1.20947e-10 6.69067e-10 6.69081e-10 1.20947e-10 1.20958e-10 6.69081e-10 6.69053e-10 6.69071e-10 6.69072e-10 -4.57863e-09 -4.57863e-09 6.69072e-10 6.69067e-10 -4.57863e-09 -4.57861e-09 -4.57863e-09 -4.57863e-09 2.13496e-08 2.13497e-08 -4.57863e-09 -4.57861e-09 2.13497e-08 2.13496e-08 6.69067e-10 6.69081e-10 -4.57861e-09 -4.57867e-09 6.69081e-10 6.69053e-10 -4.57867e-09 -4.57858e-09 -4.57861e-09 -4.57867e-09 2.13496e-08 2.13497e-08 -4.57867e-09 -4.57858e-09 2.13497e-08 2.13498e-08 -9.18629e-11 -9.18601e-11 1.20958e-10 1.20939e-10 -9.18601e-11 -9.18577e-11 1.20939e-10 1.2094e-10 1.20958e-10 1.20939e-10 6.69053e-10 6.69086e-10 1.20939e-10 1.2094e-10 6.69086e-10 6.69079e-10 -9.18577e-11 -9.18956e-11 1.2094e-10 1.21007e-10 -9.18956e-11 -9.17962e-11 1.21007e-10 1.21059e-10 1.2094e-10 1.21007e-10 6.69079e-10 6.69101e-10 1.21007e-10 1.21059e-10 6.69101e-10 6.68511e-10 6.69053e-10 6.69086e-10 -4.57858e-09 -4.57858e-09 6.69086e-10 6.69079e-10 -4.57858e-09 -4.57898e-09 -4.57858e-09 -4.57858e-09 2.13498e-08 2.13489e-08 -4.57858e-09 -4.57898e-09 2.13489e-08 2.13513e-08 6.69079e-10 6.69101e-10 -4.57898e-09 -4.57826e-09 6.69101e-10 6.68511e-10 -4.57826e-09 -4.57609e-09 -4.57898e-09 -4.57826e-09 2.13513e-08 2.13494e-08 -4.57826e-09 -4.57609e-09 2.13494e-08 2.13411e-08 -2.65011e-12 -2.67453e-12 5.25222e-12 5.28487e-12 -2.67453e-12 -2.62973e-12 5.28487e-12 5.2572e-12 5.25222e-12 5.28487e-12 -1.53385e-11 -1.54162e-11 5.28487e-12 5.2572e-12 -1.54162e-11 -1.53769e-11 -2.62973e-12 -2.58597e-12 5.2572e-12 5.09978e-12 -2.58597e-12 -3.0111e-12 5.09978e-12 5.71084e-12 5.2572e-12 5.09978e-12 -1.53769e-11 -1.49117e-11 5.09978e-12 5.71084e-12 -1.49117e-11 -1.68008e-11 -1.53385e-11 -1.54162e-11 4.6468e-11 4.64822e-11 -1.54162e-11 -1.53769e-11 4.64822e-11 4.69254e-11 4.6468e-11 4.64822e-11 -9.17962e-11 -9.17354e-11 4.64822e-11 4.69254e-11 -9.17354e-11 -9.30598e-11 -1.53769e-11 -1.49117e-11 4.69254e-11 4.5299e-11 -1.49117e-11 -1.68008e-11 4.5299e-11 4.70912e-11 4.69254e-11 4.5299e-11 -9.30598e-11 -8.90919e-11 4.5299e-11 4.70912e-11 -8.90919e-11 -9.34723e-11 -3.0111e-12 -2.51871e-12 5.71084e-12 5.21964e-12 -2.51871e-12 -1.21806e-12 5.21964e-12 3.24279e-12 5.71084e-12 5.21964e-12 -1.68008e-11 -1.61113e-11 5.21964e-12 3.24279e-12 -1.61113e-11 -1.0244e-11 -1.21806e-12 -1.10246e-12 3.24279e-12 2.83987e-12 -1.10246e-12 -1.48671e-12 2.83987e-12 6.58184e-12 3.24279e-12 2.83987e-12 -1.0244e-11 -2.22478e-12 2.83987e-12 6.58184e-12 -2.22478e-12 1.54229e-12 -1.68008e-11 -1.61113e-11 4.70912e-11 5.18222e-11 -1.61113e-11 -1.0244e-11 5.18222e-11 4.04945e-11 4.70912e-11 5.18222e-11 -9.34723e-11 -1.19471e-10 5.18222e-11 4.04945e-11 -1.19471e-10 -1.08081e-10 -1.0244e-11 -2.22478e-12 4.04945e-11 1.27125e-11 -2.22478e-12 1.54229e-12 1.27125e-11 3.17086e-11 4.04945e-11 1.27125e-11 -1.08081e-10 7.79477e-11 1.27125e-11 3.17086e-11 7.79477e-11 2.2875e-10 -9.17962e-11 -9.17354e-11 1.21059e-10 1.19452e-10 -9.17354e-11 -9.30598e-11 1.19452e-10 1.26088e-10 1.21059e-10 1.19452e-10 6.68511e-10 6.71636e-10 1.19452e-10 1.26088e-10 6.71636e-10 6.62955e-10 -9.30598e-11 -8.90919e-11 1.26088e-10 1.1677e-10 -8.90919e-11 -9.34723e-11 1.1677e-10 8.43439e-11 1.26088e-10 1.1677e-10 6.62955e-10 6.64234e-10 1.1677e-10 8.43439e-11 6.64234e-10 7.62235e-10 6.68511e-10 6.71636e-10 -4.57609e-09 -4.59045e-09 6.71636e-10 6.62955e-10 -4.59045e-09 -4.56752e-09 -4.57609e-09 -4.59045e-09 2.13411e-08 2.13668e-08 -4.59045e-09 -4.56752e-09 2.13668e-08 2.13841e-08 6.62955e-10 6.64234e-10 -4.56752e-09 -4.49546e-09 6.64234e-10 7.62235e-10 -4.49546e-09 -4.98182e-09 -4.56752e-09 -4.49546e-09 2.13841e-08 2.11261e-08 -4.49546e-09 -4.98182e-09 2.11261e-08 2.15616e-08 -9.34723e-11 -1.19471e-10 8.43439e-11 2.13036e-10 -1.19471e-10 -1.08081e-10 2.13036e-10 2.64815e-10 8.43439e-11 2.13036e-10 7.62235e-10 2.98241e-10 2.13036e-10 2.64815e-10 2.98241e-10 1.2586e-10 -1.08081e-10 7.79477e-11 2.64815e-10 -2.53601e-10 7.79477e-11 2.2875e-10 -2.53601e-10 -2.12389e-10 2.64815e-10 -2.53601e-10 1.2586e-10 2.47199e-09 -2.53601e-10 -2.12389e-10 2.47199e-09 4.30416e-09 7.62235e-10 2.98241e-10 -4.98182e-09 -4.28096e-09 2.98241e-10 1.2586e-10 -4.28096e-09 -3.29902e-09 -4.98182e-09 -4.28096e-09 2.15616e-08 2.10262e-08 -4.28096e-09 -3.29902e-09 2.10262e-08 2.13189e-08 1.2586e-10 2.47199e-09 -3.29902e-09 -5.63543e-09 2.47199e-09 4.30416e-09 -5.63543e-09 -4.03053e-09 -3.29902e-09 -5.63543e-09 2.13189e-08 2.72115e-08 -5.63543e-09 -4.03053e-09 2.72115e-08 3.73048e-08 2.13496e-08 2.13497e-08 -8.56795e-08 -8.56796e-08 2.13497e-08 2.13496e-08 -8.56796e-08 -8.56795e-08 -8.56795e-08 -8.56796e-08 1.85511e-07 1.85511e-07 -8.56796e-08 -8.56795e-08 1.85511e-07 1.85511e-07 2.13496e-08 2.13497e-08 -8.56795e-08 -8.56794e-08 2.13497e-08 2.13498e-08 -8.56794e-08 -8.56802e-08 -8.56795e-08 -8.56794e-08 1.85511e-07 1.8551e-07 -8.56794e-08 -8.56802e-08 1.8551e-07 1.85514e-07 1.85511e-07 1.85511e-07 -3.30547e-07 -3.30547e-07 1.85511e-07 1.85511e-07 -3.30547e-07 -3.30548e-07 -3.30547e-07 -3.30547e-07 -7.97779e-07 -7.97781e-07 -3.30547e-07 -3.30548e-07 -7.97781e-07 -7.97779e-07 1.85511e-07 1.8551e-07 -3.30548e-07 -3.30546e-07 1.8551e-07 1.85514e-07 -3.30546e-07 -3.30546e-07 -3.30548e-07 -3.30546e-07 -7.97779e-07 -7.97781e-07 -3.30546e-07 -3.30546e-07 -7.97781e-07 -7.97785e-07 2.13498e-08 2.13489e-08 -8.56802e-08 -8.56771e-08 2.13489e-08 2.13513e-08 -8.56771e-08 -8.56843e-08 -8.56802e-08 -8.56771e-08 1.85514e-07 1.85504e-07 -8.56771e-08 -8.56843e-08 1.85504e-07 1.85516e-07 2.13