# vtk DataFile Version 3.0
#This file was generated by the deal.II library on 2022/11/17 at 0:00:40
ASCII
DATASET UNSTRUCTURED_GRID

POINTS 4096 double
0 0.5 0
0.03125 0.5 0
0 0.53125 0
0.03125 0.53125 0
0.03125 0.5 0
0.0625 0.5 0
0.03125 0.53125 0
0.0625 0.53125 0
0 0.53125 0
0.03125 0.53125 0
0 0.5625 0
0.03125 0.5625 0
0.03125 0.53125 0
0.0625 0.53125 0
0.03125 0.5625 0
0.0625 0.5625 0
0.0625 0.5 0
0.09375 0.5 0
0.0625 0.53125 0
0.09375 0.53125 0
0.09375 0.5 0
0.125 0.5 0
0.09375 0.53125 0
0.125 0.53125 0
0.0625 0.53125 0
0.09375 0.53125 0
0.0625 0.5625 0
0.09375 0.5625 0
0.09375 0.53125 0
0.125 0.53125 0
0.09375 0.5625 0
0.125 0.5625 0
0 0.5625 0
0.03125 0.5625 0
0 0.59375 0
0.03125 0.59375 0
0.03125 0.5625 0
0.0625 0.5625 0
0.03125 0.59375 0
0.0625 0.59375 0
0 0.59375 0
0.03125 0.59375 0
0 0.625 0
0.03125 0.625 0
0.03125 0.59375 0
0.0625 0.59375 0
0.03125 0.625 0
0.0625 0.625 0
0.0625 0.5625 0
0.09375 0.5625 0
0.0625 0.59375 0
0.09375 0.59375 0
0.09375 0.5625 0
0.125 0.5625 0
0.09375 0.59375 0
0.125 0.59375 0
0.0625 0.59375 0
0.09375 0.59375 0
0.0625 0.625 0
0.09375 0.625 0
0.09375 0.59375 0
0.125 0.59375 0
0.09375 0.625 0
0.125 0.625 0
0.125 0.5 0
0.15625 0.5 0
0.125 0.53125 0
0.15625 0.53125 0
0.15625 0.5 0
0.1875 0.5 0
0.15625 0.53125 0
0.1875 0.53125 0
0.125 0.53125 0
0.15625 0.53125 0
0.125 0.5625 0
0.15625 0.5625 0
0.15625 0.53125 0
0.1875 0.53125 0
0.15625 0.5625 0
0.1875 0.5625 0
0.1875 0.5 0
0.21875 0.5 0
0.1875 0.53125 0
0.21875 0.53125 0
0.21875 0.5 0
0.25 0.5 0
0.21875 0.53125 0
0.25 0.53125 0
0.1875 0.53125 0
0.21875 0.53125 0
0.1875 0.5625 0
0.21875 0.5625 0
0.21875 0.53125 0
0.25 0.53125 0
0.21875 0.5625 0
0.25 0.5625 0
0.125 0.5625 0
0.15625 0.5625 0
0.125 0.59375 0
0.15625 0.59375 0
0.15625 0.5625 0
0.1875 0.5625 0
0.15625 0.59375 0
0.1875 0.59375 0
0.125 0.59375 0
0.15625 0.59375 0
0.125 0.625 0
0.15625 0.625 0
0.15625 0.59375 0
0.1875 0.59375 0
0.15625 0.625 0
0.1875 0.625 0
0.1875 0.5625 0
0.21875 0.5625 0
0.1875 0.59375 0
0.21875 0.59375 0
0.21875 0.5625 0
0.25 0.5625 0
0.21875 0.59375 0
0.25 0.59375 0
0.1875 0.59375 0
0.21875 0.59375 0
0.1875 0.625 0
0.21875 0.625 0
0.21875 0.59375 0
0.25 0.59375 0
0.21875 0.625 0
0.25 0.625 0
0 0.625 0
0.03125 0.625 0
0 0.65625 0
0.03125 0.65625 0
0.03125 0.625 0
0.0625 0.625 0
0.03125 0.65625 0
0.0625 0.65625 0
0 0.65625 0
0.03125 0.65625 0
0 0.6875 0
0.03125 0.6875 0
0.03125 0.65625 0
0.0625 0.65625 0
0.03125 0.6875 0
0.0625 0.6875 0
0.0625 0.625 0
0.09375 0.625 0
0.0625 0.65625 0
0.09375 0.65625 0
0.09375 0.625 0
0.125 0.625 0
0.09375 0.65625 0
0.125 0.65625 0
0.0625 0.65625 0
0.09375 0.65625 0
0.0625 0.6875 0
0.09375 0.6875 0
0.09375 0.65625 0
0.125 0.65625 0
0.09375 0.6875 0
0.125 0.6875 0
0 0.6875 0
0.03125 0.6875 0
0 0.71875 0
0.03125 0.71875 0
0.03125 0.6875 0
0.0625 0.6875 0
0.03125 0.71875 0
0.0625 0.71875 0
0 0.71875 0
0.03125 0.71875 0
0 0.75 0
0.03125 0.75 0
0.03125 0.71875 0
0.0625 0.71875 0
0.03125 0.75 0
0.0625 0.75 0
0.0625 0.6875 0
0.09375 0.6875 0
0.0625 0.71875 0
0.09375 0.71875 0
0.09375 0.6875 0
0.125 0.6875 0
0.09375 0.71875 0
0.125 0.71875 0
0.0625 0.71875 0
0.09375 0.71875 0
0.0625 0.75 0
0.09375 0.75 0
0.09375 0.71875 0
0.125 0.71875 0
0.09375 0.75 0
0.125 0.75 0
0.125 0.625 0
0.15625 0.625 0
0.125 0.65625 0
0.15625 0.65625 0
0.15625 0.625 0
0.1875 0.625 0
0.15625 0.65625 0
0.1875 0.65625 0
0.125 0.65625 0
0.15625 0.65625 0
0.125 0.6875 0
0.15625 0.6875 0
0.15625 0.65625 0
0.1875 0.65625 0
0.15625 0.6875 0
0.1875 0.6875 0
0.1875 0.625 0
0.21875 0.625 0
0.1875 0.65625 0
0.21875 0.65625 0
0.21875 0.625 0
0.25 0.625 0
0.21875 0.65625 0
0.25 0.65625 0
0.1875 0.65625 0
0.21875 0.65625 0
0.1875 0.6875 0
0.21875 0.6875 0
0.21875 0.65625 0
0.25 0.65625 0
0.21875 0.6875 0
0.25 0.6875 0
0.125 0.6875 0
0.15625 0.6875 0
0.125 0.71875 0
0.15625 0.71875 0
0.15625 0.6875 0
0.1875 0.6875 0
0.15625 0.71875 0
0.1875 0.71875 0
0.125 0.71875 0
0.15625 0.71875 0
0.125 0.75 0
0.15625 0.75 0
0.15625 0.71875 0
0.1875 0.71875 0
0.15625 0.75 0
0.1875 0.75 0
0.1875 0.6875 0
0.21875 0.6875 0
0.1875 0.71875 0
0.21875 0.71875 0
0.21875 0.6875 0
0.25 0.6875 0
0.21875 0.71875 0
0.25 0.71875 0
0.1875 0.71875 0
0.21875 0.71875 0
0.1875 0.75 0
0.21875 0.75 0
0.21875 0.71875 0
0.25 0.71875 0
0.21875 0.75 0
0.25 0.75 0
0.25 0.5 0
0.28125 0.5 0
0.25 0.53125 0
0.28125 0.53125 0
0.28125 0.5 0
0.3125 0.5 0
0.28125 0.53125 0
0.3125 0.53125 0
0.25 0.53125 0
0.28125 0.53125 0
0.25 0.5625 0
0.28125 0.5625 0
0.28125 0.53125 0
0.3125 0.53125 0
0.28125 0.5625 0
0.3125 0.5625 0
0.3125 0.5 0
0.34375 0.5 0
0.3125 0.53125 0
0.34375 0.53125 0
0.34375 0.5 0
0.375 0.5 0
0.34375 0.53125 0
0.375 0.53125 0
0.3125 0.53125 0
0.34375 0.53125 0
0.3125 0.5625 0
0.34375 0.5625 0
0.34375 0.53125 0
0.375 0.53125 0
0.34375 0.5625 0
0.375 0.5625 0
0.25 0.5625 0
0.28125 0.5625 0
0.25 0.59375 0
0.28125 0.59375 0
0.28125 0.5625 0
0.3125 0.5625 0
0.28125 0.59375 0
0.3125 0.59375 0
0.25 0.59375 0
0.28125 0.59375 0
0.25 0.625 0
0.28125 0.625 0
0.28125 0.59375 0
0.3125 0.59375 0
0.28125 0.625 0
0.3125 0.625 0
0.3125 0.5625 0
0.34375 0.5625 0
0.3125 0.59375 0
0.34375 0.59375 0
0.34375 0.5625 0
0.375 0.5625 0
0.34375 0.59375 0
0.375 0.59375 0
0.3125 0.59375 0
0.34375 0.59375 0
0.3125 0.625 0
0.34375 0.625 0
0.34375 0.59375 0
0.375 0.59375 0
0.34375 0.625 0
0.375 0.625 0
0.375 0.5 0
0.40625 0.5 0
0.375 0.53125 0
0.40625 0.53125 0
0.40625 0.5 0
0.4375 0.5 0
0.40625 0.53125 0
0.4375 0.53125 0
0.375 0.53125 0
0.40625 0.53125 0
0.375 0.5625 0
0.40625 0.5625 0
0.40625 0.53125 0
0.4375 0.53125 0
0.40625 0.5625 0
0.4375 0.5625 0
0.4375 0.5 0
0.46875 0.5 0
0.4375 0.53125 0
0.46875 0.53125 0
0.46875 0.5 0
0.5 0.5 0
0.46875 0.53125 0
0.5 0.53125 0
0.4375 0.53125 0
0.46875 0.53125 0
0.4375 0.5625 0
0.46875 0.5625 0
0.46875 0.53125 0
0.5 0.53125 0
0.46875 0.5625 0
0.5 0.5625 0
0.375 0.5625 0
0.40625 0.5625 0
0.375 0.59375 0
0.40625 0.59375 0
0.40625 0.5625 0
0.4375 0.5625 0
0.40625 0.59375 0
0.4375 0.59375 0
0.375 0.59375 0
0.40625 0.59375 0
0.375 0.625 0
0.40625 0.625 0
0.40625 0.59375 0
0.4375 0.59375 0
0.40625 0.625 0
0.4375 0.625 0
0.4375 0.5625 0
0.46875 0.5625 0
0.4375 0.59375 0
0.46875 0.59375 0
0.46875 0.5625 0
0.5 0.5625 0
0.46875 0.59375 0
0.5 0.59375 0
0.4375 0.59375 0
0.46875 0.59375 0
0.4375 0.625 0
0.46875 0.625 0
0.46875 0.59375 0
0.5 0.59375 0
0.46875 0.625 0
0.5 0.625 0
0.25 0.625 0
0.28125 0.625 0
0.25 0.65625 0
0.28125 0.65625 0
0.28125 0.625 0
0.3125 0.625 0
0.28125 0.65625 0
0.3125 0.65625 0
0.25 0.65625 0
0.28125 0.65625 0
0.25 0.6875 0
0.28125 0.6875 0
0.28125 0.65625 0
0.3125 0.65625 0
0.28125 0.6875 0
0.3125 0.6875 0
0.3125 0.625 0
0.34375 0.625 0
0.3125 0.65625 0
0.34375 0.65625 0
0.34375 0.625 0
0.375 0.625 0
0.34375 0.65625 0
0.375 0.65625 0
0.3125 0.65625 0
0.34375 0.65625 0
0.3125 0.6875 0
0.34375 0.6875 0
0.34375 0.65625 0
0.375 0.65625 0
0.34375 0.6875 0
0.375 0.6875 0
0.25 0.6875 0
0.28125 0.6875 0
0.25 0.71875 0
0.28125 0.71875 0
0.28125 0.6875 0
0.3125 0.6875 0
0.28125 0.71875 0
0.3125 0.71875 0
0.25 0.71875 0
0.28125 0.71875 0
0.25 0.75 0
0.28125 0.75 0
0.28125 0.71875 0
0.3125 0.71875 0
0.28125 0.75 0
0.3125 0.75 0
0.3125 0.6875 0
0.34375 0.6875 0
0.3125 0.71875 0
0.34375 0.71875 0
0.34375 0.6875 0
0.375 0.6875 0
0.34375 0.71875 0
0.375 0.71875 0
0.3125 0.71875 0
0.34375 0.71875 0
0.3125 0.75 0
0.34375 0.75 0
0.34375 0.71875 0
0.375 0.71875 0
0.34375 0.75 0
0.375 0.75 0
0.375 0.625 0
0.40625 0.625 0
0.375 0.65625 0
0.40625 0.65625 0
0.40625 0.625 0
0.4375 0.625 0
0.40625 0.65625 0
0.4375 0.65625 0
0.375 0.65625 0
0.40625 0.65625 0
0.375 0.6875 0
0.40625 0.6875 0
0.40625 0.65625 0
0.4375 0.65625 0
0.40625 0.6875 0
0.4375 0.6875 0
0.4375 0.625 0
0.46875 0.625 0
0.4375 0.65625 0
0.46875 0.65625 0
0.46875 0.625 0
0.5 0.625 0
0.46875 0.65625 0
0.5 0.65625 0
0.4375 0.65625 0
0.46875 0.65625 0
0.4375 0.6875 0
0.46875 0.6875 0
0.46875 0.65625 0
0.5 0.65625 0
0.46875 0.6875 0
0.5 0.6875 0
0.375 0.6875 0
0.40625 0.6875 0
0.375 0.71875 0
0.40625 0.71875 0
0.40625 0.6875 0
0.4375 0.6875 0
0.40625 0.71875 0
0.4375 0.71875 0
0.375 0.71875 0
0.40625 0.71875 0
0.375 0.75 0
0.40625 0.75 0
0.40625 0.71875 0
0.4375 0.71875 0
0.40625 0.75 0
0.4375 0.75 0
0.4375 0.6875 0
0.46875 0.6875 0
0.4375 0.71875 0
0.46875 0.71875 0
0.46875 0.6875 0
0.5 0.6875 0
0.46875 0.71875 0
0.5 0.71875 0
0.4375 0.71875 0
0.46875 0.71875 0
0.4375 0.75 0
0.46875 0.75 0
0.46875 0.71875 0
0.5 0.71875 0
0.46875 0.75 0
0.5 0.75 0
0 0.75 0
0.03125 0.75 0
0 0.78125 0
0.03125 0.78125 0
0.03125 0.75 0
0.0625 0.75 0
0.03125 0.78125 0
0.0625 0.78125 0
0 0.78125 0
0.03125 0.78125 0
0 0.8125 0
0.03125 0.8125 0
0.03125 0.78125 0
0.0625 0.78125 0
0.03125 0.8125 0
0.0625 0.8125 0
0.0625 0.75 0
0.09375 0.75 0
0.0625 0.78125 0
0.09375 0.78125 0
0.09375 0.75 0
0.125 0.75 0
0.09375 0.78125 0
0.125 0.78125 0
0.0625 0.78125 0
0.09375 0.78125 0
0.0625 0.8125 0
0.09375 0.8125 0
0.09375 0.78125 0
0.125 0.78125 0
0.09375 0.8125 0
0.125 0.8125 0
0 0.8125 0
0.03125 0.8125 0
0 0.84375 0
0.03125 0.84375 0
0.03125 0.8125 0
0.0625 0.8125 0
0.03125 0.84375 0
0.0625 0.84375 0
0 0.84375 0
0.03125 0.84375 0
0 0.875 0
0.03125 0.875 0
0.03125 0.84375 0
0.0625 0.84375 0
0.03125 0.875 0
0.0625 0.875 0
0.0625 0.8125 0
0.09375 0.8125 0
0.0625 0.84375 0
0.09375 0.84375 0
0.09375 0.8125 0
0.125 0.8125 0
0.09375 0.84375 0
0.125 0.84375 0
0.0625 0.84375 0
0.09375 0.84375 0
0.0625 0.875 0
0.09375 0.875 0
0.09375 0.84375 0
0.125 0.84375 0
0.09375 0.875 0
0.125 0.875 0
0.125 0.75 0
0.15625 0.75 0
0.125 0.78125 0
0.15625 0.78125 0
0.15625 0.75 0
0.1875 0.75 0
0.15625 0.78125 0
0.1875 0.78125 0
0.125 0.78125 0
0.15625 0.78125 0
0.125 0.8125 0
0.15625 0.8125 0
0.15625 0.78125 0
0.1875 0.78125 0
0.15625 0.8125 0
0.1875 0.8125 0
0.1875 0.75 0
0.21875 0.75 0
0.1875 0.78125 0
0.21875 0.78125 0
0.21875 0.75 0
0.25 0.75 0
0.21875 0.78125 0
0.25 0.78125 0
0.1875 0.78125 0
0.21875 0.78125 0
0.1875 0.8125 0
0.21875 0.8125 0
0.21875 0.78125 0
0.25 0.78125 0
0.21875 0.8125 0
0.25 0.8125 0
0.125 0.8125 0
0.15625 0.8125 0
0.125 0.84375 0
0.15625 0.84375 0
0.15625 0.8125 0
[...]
POINT_DATA 4096
SCALARS x_dis double 1
LOOKUP_TABLE default
6.7048e-28 8.89613e-28 3.87788e-28 8.7715e-28 8.89613e-28 1.48518e-27 8.7715e-28 2.23749e-27 3.87788e-28 8.7715e-28 -1.25008e-27 -1.33603e-28 8.7715e-28 2.23749e-27 -1.33603e-28 2.90669e-27 1.48518e-27 2.29754e-27 2.23749e-27 4.09241e-27 2.29754e-27 3.08877e-27 4.09241e-27 5.95022e-27 2.23749e-27 4.09241e-27 2.90669e-27 7.13929e-27 4.09241e-27 5.95022e-27 7.13929e-27 1.14075e-26 -1.25008e-27 -1.33603e-28 -6.82305e-27 -4.41018e-27 -1.33603e-28 2.90669e-27 -4.41018e-27 2.37475e-27 -6.82305e-27 -4.41018e-27 -2.35608e-26 -1.80674e-26 -4.41018e-27 2.37475e-27 -1.80674e-26 -3.293e-27 2.90669e-27 7.13929e-27 2.37475e-27 1.1935e-26 7.13929e-27 1.14075e-26 1.1935e-26 2.17579e-26 2.37475e-27 1.1935e-26 -3.293e-27 1.82001e-26 1.1935e-26 2.17579e-26 1.82001e-26 4.03562e-26 3.08877e-27 3.61379e-27 5.95022e-27 7.24401e-27 3.61379e-27 3.66989e-27 7.24401e-27 7.5126e-27 5.95022e-27 7.24401e-27 1.14075e-26 1.45469e-26 7.24401e-27 7.5126e-27 1.45469e-26 1.5493e-26 3.66989e-27 3.1446e-27 7.5126e-27 6.53121e-27 3.1446e-27 2.07821e-27 6.53121e-27 4.33463e-27 7.5126e-27 6.53121e-27 1.5493e-26 1.36224e-26 6.53121e-27 4.33463e-27 1.36224e-26 9.10507e-27 1.14075e-26 1.45469e-26 2.17579e-26 2.92218e-26 1.45469e-26 1.5493e-26 2.92218e-26 3.18117e-26 2.17579e-26 2.92218e-26 4.03562e-26 5.76811e-26 2.92218e-26 3.18117e-26 5.76811e-26 6.52568e-26 1.5493e-26 1.36224e-26 3.18117e-26 2.85067e-26 1.36224e-26 9.10507e-27 2.85067e-26 1.90042e-26 3.18117e-26 2.85067e-26 6.52568e-26 5.86931e-26 2.85067e-26 1.90042e-26 5.86931e-26 3.91982e-26 -2.35608e-26 -1.80674e-26 -7.01251e-26 -5.88728e-26 -1.80674e-26 -3.293e-27 -5.88728e-26 -2.45514e-26 -7.01251e-26 -5.88728e-26 -1.9265e-25 -1.68668e-25 -5.88728e-26 -2.45514e-26 -1.68668e-25 -1.00643e-25 -3.293e-27 1.82001e-26 -2.45514e-26 2.29734e-26 1.82001e-26 4.03562e-26 2.29734e-26 7.15431e-26 -2.45514e-26 2.29734e-26 -1.00643e-25 1.7362e-27 2.29734e-26 7.15431e-26 1.7362e-27 1.18273e-25 -1.9265e-25 -1.68668e-25 -5.00066e-25 -4.4631e-25 -1.68668e-25 -1.00643e-25 -4.4631e-25 -3.08945e-25 -5.00066e-25 -4.4631e-25 -1.23555e-24 -1.1513e-24 -4.4631e-25 -3.08945e-25 -1.1513e-24 -9.06084e-25 -1.00643e-25 1.7362e-27 -3.08945e-25 -1.04634e-25 1.7362e-27 1.18273e-25 -1.04634e-25 1.41076e-25 -3.08945e-25 -1.04634e-25 -9.06084e-25 -4.49008e-25 -1.04634e-25 1.41076e-25 -4.49008e-25 6.32988e-26 4.03562e-26 5.76811e-26 7.15431e-26 1.11766e-25 5.76811e-26 6.52568e-26 1.11766e-25 1.31454e-25 7.15431e-26 1.11766e-25 1.18273e-25 2.15566e-25 1.11766e-25 1.31454e-25 2.15566e-25 2.59531e-25 6.52568e-26 5.86931e-26 1.31454e-25 1.20716e-25 5.86931e-26 3.91982e-26 1.20716e-25 7.9813e-26 1.31454e-25 1.20716e-25 2.59531e-25 2.43413e-25 1.20716e-25 7.9813e-26 2.43413e-25 1.50911e-25 1.18273e-25 2.15566e-25 1.41076e-25 3.37133e-25 2.15566e-25 2.59531e-25 3.37133e-25 4.51968e-25 1.41076e-25 3.37133e-25 6.32988e-26 4.92259e-25 3.37133e-25 4.51968e-25 4.92259e-25 6.62045e-25 2.59531e-25 2.43413e-25 4.51968e-25 4.28775e-25 2.43413e-25 1.50911e-25 4.28775e-25 2.78264e-25 4.51968e-25 4.28775e-25 6.62045e-25 6.63251e-25 4.28775e-25 2.78264e-25 6.63251e-25 1.95031e-25 2.07821e-27 6.29487e-28 4.33463e-27 1.30372e-27 6.29487e-28 -9.42647e-28 1.30372e-27 -2.00308e-27 4.33463e-27 1.30372e-27 9.10507e-27 2.6473e-27 1.30372e-27 -2.00308e-27 2.6473e-27 -4.38158e-27 -9.42647e-28 -2.37173e-27 -2.00308e-27 -4.94397e-27 -2.37173e-27 -3.42847e-27 -4.94397e-27 -7.05197e-27 -2.00308e-27 -4.94397e-27 -4.38158e-27 -1.052e-26 -4.94397e-27 -7.05197e-27 -1.052e-26 -1.4703e-26 9.10507e-27 2.6473e-27 1.90042e-26 5.19693e-27 2.6473e-27 -4.38158e-27 5.19693e-27 -9.92305e-27 1.90042e-26 5.19693e-27 3.91982e-26 9.36008e-27 5.19693e-27 -9.92305e-27 9.36008e-27 -2.29442e-26 -4.38158e-27 -1.052e-26 -9.92305e-27 -2.26621e-26 -1.052e-26 -1.4703e-26 -2.26621e-26 -3.07382e-26 -9.92305e-27 -2.26621e-26 -2.29442e-26 -5.02192e-26 -2.26621e-26 -3.07382e-26 -5.02192e-26 -6.60695e-26 -3.42847e-27 -4.0047e-27 -7.05197e-27 -8.09084e-27 -4.0047e-27 -4.10993e-27 -8.09084e-27 -8.11794e-27 -7.05197e-27 -8.09084e-27 -1.4703e-26 -1.64251e-26 -8.09084e-27 -8.11794e-27 -1.64251e-26 -1.60259e-26 -4.10993e-27 -3.86084e-27 -8.11794e-27 -7.39794e-27 -3.86084e-27 -3.41782e-27 -7.39794e-27 -6.29476e-27 -8.11794e-27 -7.39794e-27 -1.60259e-26 -1.41288e-26 -7.39794e-27 -6.29476e-27 -1.41288e-26 -1.15673e-26 -1.4703e-26 -1.64251e-26 -3.07382e-26 -3.36039e-26 -1.64251e-26 -1.60259e-26 -3.36039e-26 -3.15476e-26 -3.07382e-26 -3.36039e-26 -6.60695e-26 -6.89962e-26 -3.36039e-26 -3.15476e-26 -6.89962e-26 -6.26171e-26 -1.60259e-26 -1.41288e-26 -3.15476e-26 -2.69082e-26 -1.41288e-26 -1.15673e-26 -2.69082e-26 -2.1449e-26 -3.15476e-26 -2.69082e-26 -6.26171e-26 -5.0985e-26 -2.69082e-26 -2.1449e-26 -5.0985e-26 -3.91617e-26 3.91982e-26 9.36008e-27 7.9813e-26 1.57691e-26 9.36008e-27 -2.29442e-26 1.57691e-26 -5.34052e-26 7.9813e-26 1.57691e-26 1.50911e-25 2.0644e-26 1.57691e-26 -5.34052e-26 2.0644e-26 -1.37267e-25 -2.29442e-26 -5.02192e-26 -5.34052e-26 -1.11368e-25 -5.02192e-26 -6.60695e-26 -1.11368e-25 -1.41666e-25 -5.34052e-26 -1.11368e-25 -1.37267e-25 -2.50889e-25 -1.11368e-25 -1.41666e-25 -2.50889e-25 -3.08601e-25 1.50911e-25 2.0644e-26 2.78264e-25 -5.00444e-26 2.0644e-26 -1.37267e-25 -5.00444e-26 -3.53824e-25 2.78264e-25 -5.00444e-26 1.95031e-25 -3.38701e-25 -5.00444e-26 -3.53824e-25 -3.38701e-25 -9.65557e-25 -1.37267e-25 -2.50889e-25 -3.53824e-25 -5.80182e-25 -2.50889e-25 -3.08601e-25 -5.80182e-25 -6.71167e-25 -3.53824e-25 -5.80182e-25 -9.65557e-25 -1.36809e-24 -5.80182e-25 -6.71167e-25 -1.36809e-24 -1.51579e-24 -6.60695e-26 -6.89962e-26 -1.41666e-25 -1.43189e-25 -6.89962e-26 -6.26171e-26 -1.43189e-25 -1.23504e-25 -1.41666e-25 -1.43189e-25 -3.08601e-25 -2.97968e-25 -1.43189e-25 -1.23504e-25 -2.97968e-25 -2.35942e-25 -6.26171e-26 -5.0985e-26 -1.23504e-25 -9.26394e-26 -5.0985e-26 -3.91617e-26 -9.26394e-26 -6.8557e-26 -1.23504e-25 -9.26394e-26 -2.35942e-25 -1.60142e-25 -9.26394e-26 -6.8557e-26 -1.60142e-25 -1.09207e-25 -3.08601e-25 -2.97968e-25 -6.71167e-25 -6.16775e-25 -2.97968e-25 -2.35942e-25 -6.16775e-25 -4.27407e-25 -6.71167e-25 -6.16775e-25 -1.51579e-24 -1.20159e-24 -6.16775e-25 -4.27407e-25 -1.20159e-24 -7.85488e-25 -2.35942e-25 -1.60142e-25 -4.27407e-25 -2.46008e-25 -1.60142e-25 -1.09207e-25 -2.46008e-25 -1.58475e-25 -4.27407e-25 -2.46008e-25 -7.85488e-25 -4.52324e-25 -2.46008e-25 -1.58475e-25 -4.52324e-25 -2.66511e-25 -1.23555e-24 -1.1513e-24 -3.39091e-24 -3.20111e-24 -1.1513e-24 -9.06084e-25 -3.20111e-24 -2.51218e-24 -3.39091e-24 -3.20111e-24 -8.5126e-24 -8.44733e-24 -3.20111e-24 -2.51218e-24 -8.44733e-24 -7.89839e-24 -9.06084e-25 -4.49008e-25 -2.51218e-24 -1.90375e-24 -4.49008e-25 6.32988e-26 -1.90375e-24 -9.0188e-25 -2.51218e-24 -1.90375e-24 -7.89839e-24 -6.39029e-24 -1.90375e-24 -9.0188e-25 -6.39029e-24 -6.21942e-24 -8.5126e-24 -8.44733e-24 -2.20321e-23 -1.94708e-23 -8.44733e-24 -7.89839e-24 -1.94708e-23 -1.89624e-23 -2.20321e-23 -1.94708e-23 -3.90618e-23 -4.39482e-23 -1.94708e-23 -1.89624e-23 -4.39482e-23 -2.97371e-23 -7.89839e-24 -6.39029e-24 -1.89624e-23 -1.67621e-23 -6.39029e-24 -6.21942e-24 -1.67621e-23 -1.97766e-23 -1.89624e-23 -1.67621e-23 -2.97371e-23 -3.24109e-23 -1.67621e-23 -1.97766e-23 -3.24109e-23 -4.2448e-23 6.32988e-26 4.92259e-25 -9.0188e-25 -3.91709e-25 4.92259e-25 6.62045e-25 -3.91709e-25 4.88216e-28 -9.0188e-25 -3.91709e-25 -6.21942e-24 -4.18378e-24 -3.91709e-25 4.88216e-28 -4.18378e-24 -2.41324e-24 6.62045e-25 6.63251e-25 4.88216e-28 1.6699e-25 6.63251e-25 1.95031e-25 1.6699e-25 -3.52312e-25 4.88216e-28 1.6699e-25 -2.41324e-24 -1.41407e-24 1.6699e-25 -3.52312e-25 -1.41407e-24 -3.94117e-24 -6.21942e-24 -4.18378e-24 -1.97766e-23 -1.5576e-23 -4.18378e-24 -2.41324e-24 -1.5576e-23 -1.4705e-23 -1.97766e-23 -1.5576e-23 -4.2448e-23 -7.36843e-23 -1.5576e-23 -1.4705e-23 -7.36843e-23 -6.46152e-23 -2.41324e-24 -1.41407e-24 -1.4705e-23 -1.63544e-23 -1.41407e-24 -3.94117e-24 -1.63544e-23 -8.85757e-24 -1.4705e-23 -1.63544e-23 -6.46152e-23 -4.82205e-23 -1.63544e-23 -8.85757e-24 -4.82205e-23 -4.01854e-23 -3.90618e-23 -4.39482e-23 -5.42156e-23 -3.25529e-23 -4.39482e-23 -2.97371e-23 -3.25529e-23 -4.55387e-23 -5.42156e-23 -3.25529e-23 1.68915e-22 9.96792e-25 -3.25529e-23 -4.55387e-23 9.96792e-25 -8.23373e-23 -2.97371e-23 -3.24109e-23 -4.55387e-23 -1.1077e-22 -3.24109e-23 -4.2448e-23 -1.1077e-22 -1.4465e-22 -4.55387e-23 -1.1077e-22 -8.23373e-23 -1.67427e-22 -1.1077e-22 -1.4465e-22 -1.67427e-22 -1.17038e-22 1.68915e-22 9.96792e-25 3.33596e-22 5.95237e-22 9.96792e-25 -8.23373e-23 5.95237e-22 1.99256e-22 3.33596e-22 5.95237e-22 0 0 5.95237e-22 1.99256e-22 0 0 -8.23373e-23 -1.67427e-22 1.99256e-22 5.35494e-22 -1.67427e-22 -1.17038e-22 5.35494e-22 -1.57254e-22 1.99256e-22 5.35494e-22 0 0 5.35494e-22 -1.57254e-22 0 0 -4.2448e-23 -7.36843e-23 -1.4465e-22 -6.12076e-23 -7.36843e-23 -6.46152e-23 -6.12076e-23 -1.31418e-22 -1.4465e-22 -6.12076e-23 -1.17038e-22 -1.02741e-22 -6.12076e-23 -1.31418e-22 -1.02741e-22 4.73851e-23 -6.46152e-23 -4.82205e-23 -1.31418e-22 -1.40876e-22 -4.82205e-23 -4.01854e-23 -1.40876e-22 -6.34574e-23 -1.31418e-22 -1.40876e-22 4.73851e-23 -1.95324e-22 -1.40876e-22 -6.34574e-23 -1.95324e-22 -8.18042e-23 -1.17038e-22 -1.02741e-22 -1.57254e-22 -3.27247e-22 -1.02741e-22 4.73851e-23 -3.27247e-22 -6.059e-22 -1.57254e-22 -3.27247e-22 0 0 -3.27247e-22 -6.059e-22 0 0 4.73851e-23 -1.95324e-22 -6.059e-22 6.94444e-23 -1.95324e-22 -8.18042e-23 6.94444e-23 -3.69259e-22 -6.059e-22 6.94444e-23 0 0 6.94444e-23 -3.69259e-22 0 0 1.95031e-25 -3.38701e-25 -3.52312e-25 -1.7918e-24 -3.38701e-25 -9.65557e-25 -1.7918e-24 -2.36538e-24 -3.52312e-25 -1.7918e-24 -3.94117e-24 -4.85936e-24 -1.7918e-24 -2.36538e-24 -4.85936e-24 -7.17844e-24 -9.65557e-25 -1.36809e-24 -2.36538e-24 -3.08905e-24 -1.36809e-24 -1.51579e-24 -3.08905e-24 -2.89405e-24 -2.36538e-24 -3.08905e-24 -7.17844e-24 -7.4163e-24 -3.08905e-24 -2.89405e-24 -7.4163e-24 -6.24867e-24 -3.94117e-24 -4.85936e-24 -8.85757e-24 -1.61455e-23 -4.85936e-24 -7.17844e-24 -1.61455e-23 -1.27954e-23 -8.85757e-24 -1.61455e-23 -4.01854e-23 -1.44165e-23 -1.61455e-23 -1.27954e-23 -1.44165e-23 -2.22857e-23 -7.17844e-24 -7.4163e-24 -1.27954e-23 -9.61602e-24 -7.4163e-24 -6.24867e-24 -9.61602e-24 -4.34535e-24 -1.27954e-23 -9.61602e-24 -2.22857e-23 -6.83271e-24 -9.61602e-24 -4.34535e-24 -6.83271e-24 1.35618e-23 -1.51579e-24 -1.20159e-24 -2.89405e-24 -2.14977e-24 -1.20159e-24 -7.85488e-25 -2.14977e-24 -1.42458e-24 -2.89405e-24 -2.14977e-24 -6.24867e-24 -4.69386e-24 -2.14977e-24 -1.42458e-24 -4.69386e-24 -2.317e-24 -7.85488e-25 -4.52324e-25 -1.42458e-24 -3.56975e-25 -4.52324e-25 -2.66511e-25 -3.56975e-25 3.17176e-25 -1.42458e-24 -3.56975e-25 -2.317e-24 8.23611e-25 -3.56975e-25 3.17176e-25 8.23611e-25 1.19e-24 -6.24867e-24 -4.69386e-24 -4.34535e-24 -1.8699e-24 -4.69386e-24 -2.317e-24 -1.8699e-24 2.80076e-25 -4.34535e-24 -1.8699e-24 1.35618e-23 8.04241e-24 -1.8699e-24 2.80076e-25 8.04241e-24 -2.33356e-24 -2.317e-24 8.23611e-25 2.80076e-25 -1.66613e-24 8.23611e-25 1.19e-24 -1.66613e-24 8.74367e-24 2.80076e-25 -1.66613e-24 -2.33356e-24 2.50957e-23 -1.66613e-24 8.74367e-24 2.50957e-23 1.60917e-23 -4.01854e-23 -1.44165e-23 -6.34574e-23 -3.78608e-23 -1.44165e-23 -2.22857e-23 -3.78608e-23 5.88131e-23 -6.34574e-23 -3.78608e-23 -8.18042e-23 2.74422e-22 -3.78608e-23 5.88131e-23 2.74422e-22 3.04325e-22 -2.22857e-23 -6.83271e-24 5.88131e-23 7.96393e-23 -6.83271e-24 1.35618e-23 7.96393e-23 1.02412e-22 5.88131e-23 7.96393e-23 3.04325e-22 5.3827e-22 7.96393e-23 1.02412e-22 5.3827e-22 4.45919e-22 -8.18042e-23 2.74422e-22 -3.69259e-22 2.58026e-23 2.74422e-22 3.04325e-22 2.58026e-23 1.66284e-21 -3.69259e-22 2.58026e-23 0 0 2.58026e-23 1.66284e-21 0 0 3.04325e-22 5.3827e-22 1.66284e-21 8.083e-22 5.3827e-22 4.45919e-22 8.083e-22 1.04762e-21 1.66284e-21 8.083e-22 0 0 8.083e-22 1.04762e-21 0 0 1.35618e-23 8.04241e-24 1.02412e-22 7.13977e-23 8.04241e-24 -2.33356e-24 7.13977e-23 5.68645e-23 1.02412e-22 7.13977e-23 4.45919e-22 3.85129e-22 7.13977e-23 5.68645e-23 3.85129e-22 4.12532e-22 -2.33356e-24 2.50957e-23 5.68645e-23 3.09194e-23 2.50957e-23 1.60917e-23 3.09194e-23 9.04319e-23 5.68645e-23 3.09194e-23 4.12532e-22 4.81619e-22 3.09194e-23 9.04319e-23 4.81619e-22 2.39476e-22 4.45919e-22 3.85129e-22 1.04762e-21 1.89062e-21 3.85129e-22 4.12532e-22 1.89062e-21 2.01049e-21 1.04762e-21 1.89062e-21 0 0 1.89062e-21 2.01049e-21 0 0 4.12532e-22 4.81619e-22 2.01049e-21 7.11055e-22 4.81619e-22 2.39476e-22 7.11055e-22 3.48321e-22 2.01049e-21 7.11055e-22 0 0 7.11055e-22 3.48321e-22 0 0 -3.41782e-27 -4.39688e-27 -6.29476e-27 -4.76558e-27 -4.39688e-27 -3.61405e-27 -4.76558e-27 -3.44436e-27 -6.29476e-27 -4.76558e-27 -1.15673e-26 -8.89347e-27 -4.76558e-27 -3.44436e-27 -8.89347e-27 -6.27214e-27 -3.61405e-27 -2.22178e-27 -3.44436e-27 -2.06862e-27 -2.22178e-27 -6.97908e-28 -2.06862e-27 -6.24628e-28 -3.44436e-27 -2.06862e-27 -6.27214e-27 -3.69911e-27 -2.06862e-27 -6.24628e-28 -3.69911e-27 -1.00215e-27 -1.15673e-26 -8.89347e-27 -2.1449e-26 -1.64619e-26 -8.89347e-27 -6.27214e-27 -1.64619e-26 -1.20297e-26 -2.1449e-26 -1.64619e-26 -3.91617e-26 -3.0116e-26 -1.64619e-26 -1.20297e-26 -3.0116e-26 -2.32492e-26 -6.27214e-27 -3.69911e-27 -1.20297e-26 -7.4107e-27 -3.69911e-27 -1.00215e-27 -7.4107e-27 -2.17383e-27 -1.20297e-26 -7.4107e-27 -2.32492e-26 -1.59943e-26 -7.4107e-27 -2.17383e-27 -1.59943e-26 -6.04916e-27 -6.97908e-28 7.30309e-28 -6.24628e-28 7.45505e-28 7.30309e-28 1.88235e-27 7.45505e-28 1.85308e-27 -6.24628e-28 7.45505e-28 -1.00215e-27 1.62109e-27 7.45505e-28 1.85308e-27 1.62109e-27 3.85704e-27 1.88235e-27 2.62498e-27 1.85308e-27 2.56474e-27 2.62498e-27 2.88199e-27 2.56474e-27 2.80072e-27 1.85308e-27 2.56474e-27 3.85704e-27 5.1878e-27 2.56474e-27 2.80072e-27 5.1878e-27 5.45818e-27 -1.00215e-27 1.62109e-27 -2.17383e-27 3.58737e-27 1.62109e-27 3.85704e-27 3.58737e-27 8.32031e-27 -2.17383e-27 3.58737e-27 -6.04916e-27 6.16408e-27 3.58737e-27 8.32031e-27 6.16408e-27 1.69586e-26 3.85704e-27 5.1878e-27 8.32031e-27 1.11369e-26 5.1878e-27 5.45818e-27 1.11369e-26 1.14878e-26 8.32031e-27 1.11369e-26 1.69586e-26 2.31152e-26 1.11369e-26 1.14878e-26 2.31152e-26 2.34193e-26 -3.91617e-26 -3.0116e-26 -6.8557e-26 -5.46245e-26 -3.0116e-26 -2.32492e-26 -5.46245e-26 -4.82878e-26 -6.8557e-26 -5.46245e-26 -1.09207e-25 -9.5745e-26 -5.46245e-26 -4.82878e-26 -9.5745e-26 -9.20133e-26 -2.32492e-26 -1.59943e-26 -4.82878e-26 -3.58565e-26 -1.59943e-26 -6.04916e-27 -3.58565e-26 -1.45566e-26 -4.82878e-26 -3.58565e-26 -9.20133e-26 -8.04991e-26 -3.58565e-26 -1.45566e-26 -8.04991e-26 -4.78155e-26 -1.09207e-25 -9.5745e-26 -1.58475e-25 -1.62183e-25 -9.5745e-26 -9.20133e-26 -1.62183e-25 -2.27055e-25 -1.58475e-25 -1.62183e-25 -2.66511e-25 -2.75895e-25 -1.62183e-25 -2.27055e-25 -2.75895e-25 -5.02657e-25 -9.20133e-26 -8.04991e-26 -2.27055e-25 -2.26213e-25 -8.04991e-26 -4.78155e-26 -2.26213e-25 -1.45621e-25 -2.27055e-25 -2.26213e-25 -5.02657e-25 -6.71592e-25 -2.26213e-25 -1.45621e-25 -6.71592e-25 -5.8073e-25 -6.04916e-27 6.16408e-27 -1.45566e-26 1.05308e-26 6.16408e-27 1.69586e-26 1.05308e-26 3.42974e-26 -1.45566e-26 1.05308e-26 -4.78155e-26 7.17832e-27 1.05308e-26 3.42974e-26 7.17832e-27 6.91309e-26 1.69586e-26 2.31152e-26 3.42974e-26 4.85138e-26 2.31152e-26 2.34193e-26 4.85138e-26 4.90574e-26 3.42974e-26 4.85138e-26 6.91309e-26 1.00715e-25 4.85138e-26 4.90574e-26 1.00715e-25 1.01634e-25 -4.78155e-26 7.17832e-27 -1.45621e-25 -7.4321e-27 7.17832e-27 6.91309e-26 -7.4321e-27 1.29294e-25 -1.45621e-25 -7.4321e-27 -5.8073e-25 -1.79082e-25 -7.4321e-27 1.29294e-25 -1.79082e-25 2.84279e-25 6.91309e-26 1.00715e-25 1.29294e-25 2.11577e-25 1.00715e-25 1.01634e-25 2.11577e-25 2.00326e-25 1.29294e-25 2.11577e-25 2.84279e-25 4.70704e-25 2.11577e-25 2.00326e-25 4.70704e-25 3.33695e-25 2.88199e-27 2.69647e-27 2.80072e-27 2.56791e-27 2.69647e-27 2.16667e-27 2.56791e-27 2.02682e-27 2.80072e-27 2.56791e-27 5.45818e-27 4.85207e-27 2.56791e-27 2.02682e-27 4.85207e-27 3.61668e-27 2.16667e-27 1.44788e-27 2.02682e-27 1.31518e-27 1.44788e-27 6.79692e-28 1.31518e-27 5.64383e-28 2.02682e-27 1.31518e-27 3.61668e-27 2.15068e-27 1.31518e-27 5.64383e-28 2.15068e-27 6.7746e-28 5.45818e-27 4.85207e-27 1.14878e-26 9.695e-27 4.85207e-27 3.61668e-27 9.695e-27 6.8173e-27 1.14878e-26 9.695e-27 2.34193e-26 1.91377e-26 9.695e-27 6.8173e-27 1.91377e-26 1.21703e-26 3.61668e-27 2.15068e-27 6.8173e-27 3.62375e-27 2.15068e-27 6.7746e-28 3.62375e-27 7.42531e-28 6.8173e-27 3.62375e-27 1.21703e-26 5.12029e-27 3.62375e-27 7.42531e-28 5.12029e-27 -9.92866e-28 6.79692e-28 -4.02116e-29 5.64383e-28 -1.26191e-28 -4.02116e-29 -6.13736e-28 -1.26191e-28 -6.58255e-28 5.64383e-28 -1.26191e-28 6.7746e-28 -5.72747e-28 -1.26191e-28 -6.58255e-28 -5.72747e-28 -1.55948e-27 -6.13736e-28 -9.77566e-28 -6.58255e-28 -1.00735e-27 -9.77566e-28 -1.10487e-27 -1.00735e-27 -1.12244e-27 -6.58255e-28 -1.00735e-27 -1.55948e-27 -2.1863e-27 -1.00735e-27 -1.12244e-27 -2.1863e-27 -2.41891e-27 6.7746e-28 -5.72747e-28 7.42531e-28 -1.85277e-27 -5.72747e-28 -1.55948e-27 -1.85277e-27 -3.84327e-27 7.42531e-28 -1.85277e-27 -9.92866e-28 -6.0127e-27 -1.85277e-27 -3.84327e-27 -6.0127e-27 -9.69985e-27 -1.55948e-27 -2.1863e-27 -3.84327e-27 -5.09018e-27 -2.1863e-27 -2.41891e-27 -5.09018e-27 -5.40616e-27 -3.84327e-27 -5.09018e-27 -9.69985e-27 -1.16241e-26 -5.09018e-27 -5.40616e-27 -1.16241e-26 -1.26247e-26 2.34193e-26 1.91377e-26 4.90574e-26 3.74662e-26 1.91377e-26 1.21703e-26 3.74662e-26 2.11682e-26 4.90574e-26 3.74662e-26 1.01634e-25 7.57705e-26 3.74662e-26 2.11682e-26 7.57705e-26 3.53027e-26 1.21703e-26 5.12029e-27 2.11682e-26 5.86342e-27 5.12029e-27 -9.92866e-28 5.86342e-27 -7.27069e-27 2.11682e-26 5.86342e-27 3.53027e-26 -5.27676e-27 5.86342e-27 -7.27069e-27 -5.27676e-27 -3.15078e-26 1.01634e-25 7.57705e-26 2.00326e-25 1.2287e-25 7.57705e-26 3.53027e-26 1.2287e-25 2.27582e-26 2.00326e-25 1.2287e-25 3.33695e-25 6.56058e-26 1.2287e-25 2.27582e-26 6.56058e-26 -1.61765e-25 3.53027e-26 -5.27676e-27 2.27582e-26 -5.7589e-26 -5.27676e-27 -3.15078e-26 -5.7589e-26 -9.17624e-26 2.27582e-26 -5.7589e-26 -1.61765e-25 -3.73144e-25 -5.7589e-26 -9.17624e-26 -3.73144e-25 -3.92676e-25 -9.92866e-28 -6.0127e-27 -7.27069e-27 -1.61994e-26 -6.0127e-27 -9.69985e-27 -1.61994e-26 -2.2237e-26 -7.27069e-27 -1.61994e-26 -3.15078e-26 -3.76976e-26 -1.61994e-26 -2.2237e-26 -3.76976e-26 -4.70951e-26 -9.69985e-27 -1.16241e-26 -2.2237e-26 -2.64257e-26 -1.16241e-26 -1.26247e-26 -2.64257e-26 -2.73483e-26 -2.2237e-26 -2.64257e-26 -4.70951e-26 -5.71012e-26 -2.64257e-26 -2.73483e-26 -5.71012e-26 -6.32345e-26 -3.15078e-26 -3.76976e-26 -9.17624e-26 -1.03276e-25 -3.76976e-26 -4.70951e-26 -1.03276e-25 -1.17333e-25 -9.17624e-26 -1.03276e-25 -3.92676e-25 -2.77169e-25 -1.03276e-25 -1.17333e-25 -2.77169e-25 -3.25423e-25 -4.70951e-26 -5.71012e-26 -1.17333e-25 -1.40422e-25 -5.71012e-26 -6.32345e-26 -1.40422e-25 -1.56321e-25 -1.17333e-25 -1.40422e-25 -3.25423e-25 -3.80173e-25 -1.40422e-25 -1.56321e-25 -3.80173e-25 -4.85818e-25 -2.66511e-25 -2.75895e-25 3.17176e-25 -3.19703e-25 -2.75895e-25 -5.02657e-25 -3.19703e-25 -1.12356e-24 3.17176e-25 -3.19703e-25 1.19e-24 1.72308e-24 -3.19703e-25 -1.12356e-24 1.72308e-24 -1.36432e-24 -5.02657e-25 -6.71592e-25 -1.12356e-24 -1.73321e-24 -6.71592e-25 -5.8073e-25 -1.73321e-24 -1.33055e-24 -1.12356e-24 -1.73321e-24 -1.36432e-24 -3.44358e-24 -1.73321e-24 -1.33055e-24 -3.44358e-24 -3.01833e-24 1.19e-24 1.72308e-24 8.74367e-24 6.74082e-24 1.72308e-24 -1.36432e-24 6.74082e-24 -2.57413e-24 8.74367e-24 6.74082e-24 1.60917e-23 3.14434e-23 6.74082e-24 -2.57413e-24 3.14434e-23 3.81373e-23 -1.36432e-24 -3.44358e-24 -2.57413e-24 -7.18938e-24 -3.44358e-24 -3.01833e-24 -7.18938e-24 -4.40378e-24 -2.57413e-24 -7.18938e-24 3.81373e-23 1.3757e-23 -7.18938e-24 -4.40378e-24 1.3757e-23 -1.16744e-24 -5.8073e-25 -1.79082e-25 -1.33055e-24 -1.68941e-25 -1.79082e-25 2.84279e-25 -1.68941e-25 8.67016e-25 -1.33055e-24 -1.68941e-25 -3.01833e-24 -1.52475e-24 -1.68941e-25 8.67016e-25 -1.52475e-24 1.08175e-24 2.84279e-25 4.70704e-25 8.67016e-25 1.2211e-24 4.70704e-25 3.33695e-25 1.2211e-24 9.45444e-25 8.67016e-25 1.2211e-24 1.08175e-24 1.79169e-24 1.2211